Compiler and run-time data
===========================================================================
RASPA 2.0.35
Compiled as a 64-bits application
Compiler: gcc 8.3.0
Compile Date = Jan 22 2021, Compile Time = 12:22:36

Wed Jun 22 14:42:40 2022
Simulation started on Wednesday, June 22.
The start time was 02:42 PM.

Hostname:    The start time was 02:42 PM.
OS type:     The start time was 02:42 PM.
OS release:  The start time was 02:42 PM.
OS version:  The start time was 02:42 PM.

Simulation
===========================================================================
Dimensions: 3
Random number seed: 1655901757
RASPA directory set to: /home/salvador/RASPA/simulations
String appended to output-files: 
Number of cycles: 1000000
Number of initializing cycles: 1000
Number of equilibration cycles: 0
Print every: 10
Triclinic boundary condition applied
Timestep: 0.000500
	Degrees of freedom:                        500
	Translational Degrees of freedom:          300
	Rotational Degrees of freedom:             200
	Degrees of freedom Framework:              0


Mutual consistent basic set of units:
======================================
Unit of temperature: Kelvin
Unit of length:      1e-10 [m]
Unit of time:        1e-12 [s]
Unit of mass:        1.66054e-27 [kg]
Unit of charge:      1.60218e-19 [C/particle]

Derived units and their conversion factors:
===========================================
Unit of energy:              1.66054e-23 [J]
Unit of force:               1.66054e-13 [N]
Unit of pressure:            1.66054e+07 [Pa]
Unit of velocity:            100 [m/s]
Unit of acceleration:        1e-08 [m^2/s]
Unit of diffusion:           1e-08 [m^2/s]
Unit of dipole moment:       1.60218e-29 [C.m]
Unit of electric potential:  0.000103643 [V]
Unit of electric field:      1.03643e+06 [V]
Unit of polarizability:      1.54587e-35 [-]
Unit of Coulomb potential:   167101.0800066561  [K]
Unit of dielectric constant: 0.0000154587       [s^2 C^2/(kg m^3)]
Unit of wave vectors:        5.3088374589       [cm^1]
Boltzmann constant:          0.8314464919       [-]

Internal conversion factors:
===========================================
Energy to Kelvin:                                    1.2027242847
FH correction factor                                 2.0211930949
Heat capacity conversion factor:                    10.0000088723
From Debye to internal units:                        4.8032067991
Isothermal compressibility conversion factor:        0.0000000602

Energy conversion factors:
===========================================
From mdyne/A to kcal/mol/A^2:           143.933
From mdyne/A to kj/mol/A^2:             602.214
From mdyne/A to K/A^2:                  72429.7
From mdyne A/rad^2 to kcal/mol/deg^2:   0.0438444


Properties computed
===========================================================================
Movies: yes
	Movie snapshots are appended to file every 100 cycles
Radial Distribution Function: no
Number of molecules GCMC histogram: no
Histogram of the molecule positions: no
Free energy profiles: no
Pore Size Distribution Function: no
End-to-end distance: no
Histogram of the energy of the system: no
Compute thermodynamic factors: no
Framework spacing histograms: no
Residence times histograms: no
Distance histograms: no
Bend Angle histograms: no
Dihedral angle histograms: no
Angle between planes histograms: no
Molecule properties: no
Infra-red spectra: no
Mean-squared displacement using modified order-N algorithm: no
Velocity-autocorrelation function modified order-N algorithm: no
Rotational velocity-autocorrelation function modified order-N algorithm: no
Molecular orientation-autocorrelation function modified order-N algorithm: no
Bond orientation-autocorrelation function modified order-N algorithm: no
Mean-squared displacement (conventional algorithm): no
Velocity-autocorrelation function (conventional algorithm): no
3D density grid for adsorbates: no
Compute cation an/or adsorption sites: no
dcTST snapshots: no
Compute pressure and stress: no


VTK
===========================================================================
VTK fractional-range position framework atoms: [-0.001000,1.001000] [-0.001000,1.001000] [-0.001000,1.001000]
VTK fractional-range position framework bonds: [-0.151000,1.151000] [-0.151000,1.151000] [-0.151000,1.151000]
VTK fractional-range com-position adsorbate molecules: [-0.101000,1.101000] [-0.101000,1.101000] [-0.101000,1.101000]
VTK fractional-range com-position cation molecules: [-0.101000,1.101000] [-0.101000,1.101000] [-0.101000,1.101000]
	3D free energy grid made for the full simulation-cell


Thermo/Baro-stat NHC parameters
===========================================================================
External temperature: 300 [K]
Beta: 0.00400908 [energy unit]
External Pressure: 1e+07 [Pa]


Thermostat chain-length: 3
Timescale parameter for thermostat: 0.150000 [ps]
Barostat chain-length:   3
Timescale parameter for barostat:   0.150000 [ps]

Number of Yoshida-Suzuki decomposition steps: 5
Number of respa steps: 5


Method and settings for electrostatics
===============================================================================
Dielectric constant of the medium : 1.000000
Charge from charge-equilibration: no
Ewald summation is used (exact solution of a periodic system)
Relative precision                : 1e-08
Alpha convergence parameter       : 0.317887
kvec (x,y,z)                      : 26 26 26


CFC-RXMC parameters
===========================================================================
Number of reactions: 0


Rattle parameters
===========================================================================
Distance constraint type: r^2-r^2_0
Bend angle constraint type: theta-theta_0
Dihedral angle constraint type: phi-phi_0
Inversion-bend angle constraint type: chi-chi_0
Out-of-plane distance constraint type: r-r_0


Spectra parameters
===========================================================================
Compute normal modes: no


Minimization parameters
===========================================================================
Generalized coordinates are: Cartesian center-of-mass, elements of the orientational matrix p1,p2,p3 and strain
Potential derivatives are evaluated: analytically
Translation of the system is removed from the generalized Hessian: no
Rotation of the system is removed from the generalized Hessian: no
Maximum step-length: 0.3
Convergence factor: 1
Maximum number of minimization steps: 10000
Use gradients in the line-minimizations: yes
RMS gradient tolerance: 1e-06
Maximum gradient tolerance: 1e-06

Distance constraints: 0
Angle constraints: 0
Dihedral constraints: 0

Improper dihedral constraints: 0

Inversion-bend constraints: 0

Out-of-plane constraints: 0

Harmonic distance constraints: 0
Harmonic angle constraints: 0
Harmonic dihedral constraints: 0

Dihedral mid-point measurements: 0

All framework atoms are fixed

Fixed adsorbate atoms:  
Fixed adsorbate groups (center-of-mass):  
Fixed adsorbate groups (orientation):  

Fixed cation atoms:  
Fixed cation groups (center-of-mass):  
Fixed cation groups (orientation):  


dcTST parameters
===========================================================================
Free energy profiles computed: no
Free energy profiles written every 5000 cycles
Free energy mapping: mapped to a,b,c-coordinates
BarrierPosition:       0.0000000000       0.0000000000       0.0000000000
BarrierNormal:         0.0000000000       0.0000000000       0.0000000000
Start with a molecule on top of the barrier: no
Maximum distance to barrier (e.g. distance to minumum free energy):       0.0000000000 [A]
Maximum trajectory time:      10.0000000000 [ps]
Each configuration is used with 5 different initial velocities


Cbmc parameters
===========================================================================
Biasing method: using only the VDW part
Number of trial positions:                                       10
Number of trial positions (reinsertion):                         10
Number of trial positions (partial reinsertion):                 10
Number of trial positions (identity-change):                     10
Number of trial positions (Gibbs particle transfer):             10
Number of trial positions (insertion/deletion):                  10
Number of trial positions (Widom insertion):                     10
Number of trial positions coupled Torsion-selection:             100
Number of trial positions first bead:                            10
Number of trial positions first bead (reinsertion):              10
Number of trial positions first bead (partial reinsertion):      10
Number of trial positions first bead (identity-change):          10
Number of trial positions first bead (Gibbs particle transfer):  10
Number of trial positions first bead (insertion/deletion):       10
Number of trial positions first bead (Widom insertion):          10
Number of trial moves per open bead:                             150
Target acceptance ratio small-mc scheme:                         0.400000
Energy overlap criteria:                                         1e+07
Minimal Rosenbluth factor:                                       1e-150


Pseudo atoms: 17
===========================================================================
Pseudo Atom[   0] Name UNIT     Oxidation:          Element: H    pdb-name: H    Scat. Types:   1   1 Mass=1.000000000  B-factor:0.000   
                 Charge=1.000000000          Polarization=0.000000000  [A^3] (considered a charged atom and no polarization)  Interactions: yes
                 Anisotropic factor:    0.000 [-] (Absolute), Radius:    1.000 [A], Framework-atom:  no
Pseudo Atom[   1] Name Zn_s     Oxidation: +0       Element: -    pdb-name: He   Scat. Types:   0   2 Mass=1.000000000  B-factor:1.000   
                 Charge=0.141440000          Polarization=0.000000000  [A^3] (considered a charged atom and no polarization)  Interactions: yes
                 Anisotropic factor:    0.000 [-] (Relative), Radius:    1.000 [A], Framework-atom: yes (charge from pseudo-atoms file)
Pseudo Atom[   2] Name Zn_c     Oxidation: +0       Element: Zn   pdb-name: Zn   Scat. Types:  31  30 Mass=64.080000000 B-factor:1.000   
                 Charge=0.141440000          Polarization=0.000000000  [A^3] (considered a charged atom and no polarization)  Interactions: yes
                 Anisotropic factor:    0.000 [-] (Relative), Radius:    1.000 [A], Framework-atom: yes (charge from pseudo-atoms file)
Pseudo Atom[   3] Name N_s      Oxidation: +0       Element: -    pdb-name: Ne   Scat. Types:   0  10 Mass=1.000000000  B-factor:1.000   
                 Charge=-0.470300000         Polarization=0.000000000  [A^3] (considered a charged atom and no polarization)  Interactions: yes
                 Anisotropic factor:    0.000 [-] (Relative), Radius:    1.000 [A], Framework-atom: yes (charge from pseudo-atoms file)
Pseudo Atom[   4] Name N_c      Oxidation: +0       Element: N    pdb-name: N    Scat. Types:   8   7 Mass=13.006740000 B-factor:1.000   
                 Charge=0.050000000          Polarization=0.000000000  [A^3] (considered a charged atom and no polarization)  Interactions: yes
                 Anisotropic factor:    0.000 [-] (Relative), Radius:    1.000 [A], Framework-atom: yes (charge from pseudo-atoms file)
Pseudo Atom[   5] Name C1       Oxidation: +0       Element: C    pdb-name: C    Scat. Types:   7   6 Mass=12.011150000 B-factor:1.000   
                 Charge=0.437500000          Polarization=0.000000000  [A^3] (considered a charged atom and no polarization)  Interactions: yes
                 Anisotropic factor:    0.000 [-] (Relative), Radius:    1.000 [A], Framework-atom: yes (charge from pseudo-atoms file)
Pseudo Atom[   6] Name C2       Oxidation: +0       Element: C    pdb-name: C    Scat. Types:   7   6 Mass=12.011150000 B-factor:1.000   
                 Charge=-0.066200000         Polarization=0.000000000  [A^3] (considered a charged atom and no polarization)  Interactions: yes
                 Anisotropic factor:    0.000 [-] (Relative), Radius:    1.000 [A], Framework-atom: yes (charge from pseudo-atoms file)
Pseudo Atom[   7] Name C3       Oxidation: +0       Element: C    pdb-name: C    Scat. Types:   7   6 Mass=12.011150000 B-factor:1.000   
                 Charge=-0.460600000         Polarization=0.000000000  [A^3] (considered a charged atom and no polarization)  Interactions: yes
                 Anisotropic factor:    0.000 [-] (Relative), Radius:    1.000 [A], Framework-atom: yes (charge from pseudo-atoms file)
Pseudo Atom[   8] Name H2       Oxidation: +0       Element: H    pdb-name: H    Scat. Types:   1   1 Mass=1.007970000  B-factor:1.000   
                 Charge=0.114100000          Polarization=0.000000000  [A^3] (considered a charged atom and no polarization)  Interactions: yes
                 Anisotropic factor:    0.000 [-] (Relative), Radius:    1.000 [A], Framework-atom: yes (charge from pseudo-atoms file)
Pseudo Atom[   9] Name H3       Oxidation: +0       Element: H    pdb-name: H    Scat. Types:   1   1 Mass=1.007970000  B-factor:1.000   
                 Charge=0.138100000          Polarization=0.000000000  [A^3] (considered a charged atom and no polarization)  Interactions: yes
                 Anisotropic factor:    0.000 [-] (Relative), Radius:    1.000 [A], Framework-atom: yes (charge from pseudo-atoms file)
Pseudo Atom[  10] Name He       Oxidation: +0       Element: He   pdb-name: He   Scat. Types:   3   2 Mass=4.002602000  B-factor:1.000   
                 Charge=0.000000000          Polarization=0.000000000  [A^3] (considered a chargeless atom and no polarization)  Interactions: yes
                 Anisotropic factor:    0.000 [-] (Absolute), Radius:    1.000 [A], Framework-atom:  no
Pseudo Atom[  11] Name Ow       Oxidation: +0       Element: O    pdb-name: O    Scat. Types:   9   8 Mass=15.999400000 B-factor:1.000   
                 Charge=-0.847600000         Polarization=0.000000000  [A^3] (considered a charged atom and no polarization)  Interactions: yes
                 Anisotropic factor:    0.000 [-] (Relative), Radius:    0.500 [A], Framework-atom:  no
Pseudo Atom[  12] Name Hw       Oxidation: +0       Element: H    pdb-name: H    Scat. Types:   1   1 Mass=1.007940000  B-factor:1.000   
                 Charge=0.423800000          Polarization=0.000000000  [A^3] (considered a charged atom and no polarization)  Interactions: yes
                 Anisotropic factor:    0.000 [-] (Relative), Radius:    1.000 [A], Framework-atom:  no
Pseudo Atom[  13] Name Cl       Oxidation: +0       Element: Cl   pdb-name: Cl   Scat. Types:  18  17 Mass=35.453000000 B-factor:1.000   
                 Charge=-0.353600000         Polarization=0.000000000  [A^3] (considered a charged atom and no polarization)  Interactions: yes
                 Anisotropic factor:    0.000 [-] (Relative), Radius:    1.000 [A], Framework-atom:  no
Pseudo Atom[  14] Name Na       Oxidation: +0       Element: Na   pdb-name: Na   Scat. Types:  12  11 Mass=22.989770000 B-factor:1.000   
                 Charge=0.353600000          Polarization=0.000000000  [A^3] (considered a charged atom and no polarization)  Interactions: yes
                 Anisotropic factor:    0.000 [-] (Relative), Radius:    1.000 [A], Framework-atom:  no
Pseudo Atom[  15] Name Xe       Oxidation: +0       Element: O    pdb-name: Xe   Scat. Types:   9  54 Mass=15.999400000 B-factor:1.000   
                 Charge=-0.350000000         Polarization=0.000000000  [A^3] (considered a charged atom and no polarization)  Interactions: yes
                 Anisotropic factor:    0.000 [-] (Relative), Radius:    0.600 [A], Framework-atom: yes (charge from pseudo-atoms file)
Pseudo Atom[  16] Name Kr       Oxidation: +0       Element: O    pdb-name: Kr   Scat. Types:   9  36 Mass=15.999400000 B-factor:1.000   
                 Charge=0.350000000          Polarization=0.000000000  [A^3] (considered a charged atom and no polarization)  Interactions: yes
                 Anisotropic factor:    0.000 [-] (Relative), Radius:    0.600 [A], Framework-atom: yes (charge from pseudo-atoms file)


Forcefield: local
===========================================================================
Minimal distance: 1
CutOff VDW : 12.000000 (144.000000)
CutOff VDW switching on: 10.800000 (116.640000)
CutOff charge-charge : 12.000000 (144.000000)
CutOff charge-charge switching on: 7.800000 (60.840000)
CutOff charge-bonddipole : 12.000000 (144.000000)
CutOff charge-bondipole switching on: 8.400000 (70.560000)
CutOff bonddipole-bonddipole : 12.000000 (144.000000)
CutOff bonddipole-bondipole switching on: 9.000000 (81.000000)
Polarization is neglected
All potentials are shifted to zero at the Cutoff

General mixing rule: Lorentz-Berthelot mixing rules are used FIRST for cross terms
0 cross terms are overwritten using the individual mixing rules from the file 'force_field_mixing_rules.def'
and then 21 terms are overwritten using the specific interactions from the file 'force_field.def'

The force field and all the interactions:
   Zn_s -    Zn_s [LENNARD_JONES] p_0/k_B:   0.00000 [K], p_1: 1.00000 [A], shift/k_B:  -0.00000000 [K], tailcorrection: no
   Zn_s -    Zn_c [LENNARD_JONES] p_0/k_B:   0.00000 [K], p_1: 1.00000 [A], shift/k_B:  -0.00000000 [K], tailcorrection: no
   Zn_s -     N_s [LENNARD_JONES] p_0/k_B:   0.00000 [K], p_1: 1.00000 [A], shift/k_B:  -0.00000000 [K], tailcorrection: no
   Zn_s -     N_c [LENNARD_JONES] p_0/k_B:   0.00000 [K], p_1: 1.00000 [A], shift/k_B:  -0.00000000 [K], tailcorrection: no
   Zn_s -      C1 [LENNARD_JONES] p_0/k_B:   0.00000 [K], p_1: 1.00000 [A], shift/k_B:  -0.00000000 [K], tailcorrection: no
   Zn_s -      C2 [LENNARD_JONES] p_0/k_B:   0.00000 [K], p_1: 1.00000 [A], shift/k_B:  -0.00000000 [K], tailcorrection: no
   Zn_s -      C3 [LENNARD_JONES] p_0/k_B:   0.00000 [K], p_1: 1.00000 [A], shift/k_B:  -0.00000000 [K], tailcorrection: no
   Zn_s -      H2 [LENNARD_JONES] p_0/k_B:   0.00000 [K], p_1: 1.00000 [A], shift/k_B:  -0.00000000 [K], tailcorrection: no
   Zn_s -      H3 [ZERO_POTENTIAL]
   Zn_s -      He [ZERO_POTENTIAL]
   Zn_s -      Ow [LENNARD_JONES] p_0/k_B:   0.00000 [K], p_1: 1.00000 [A], shift/k_B:  -0.00000000 [K], tailcorrection: no
   Zn_s -      Hw [LENNARD_JONES] p_0/k_B:   0.00000 [K], p_1: 1.00000 [A], shift/k_B:  -0.00000000 [K], tailcorrection: no
   Zn_s -      Cl [ZERO_POTENTIAL]
   Zn_s -      Na [ZERO_POTENTIAL]
   Zn_s -      Xe [ZERO_POTENTIAL]
   Zn_s -      Kr [ZERO_POTENTIAL]
   Zn_c -    Zn_c [LENNARD_JONES] p_0/k_B:   6.29531 [K], p_1: 1.96000 [A], shift/k_B:  -0.00047810 [K], tailcorrection: no
   Zn_c -     N_s [LENNARD_JONES] p_0/k_B:   0.00000 [K], p_1: 1.00000 [A], shift/k_B:  -0.00000000 [K], tailcorrection: no
   Zn_c -     N_c [MORSE] p_0/k_B: 465.35869 [K], p_1:  2.00000 [A^-1], p_2:  2.73500 [A], shift/k_B:  -0.00000834 [K], tailcorrection: no
   Zn_c -      C1 [LENNARD_JONES] p_0/k_B:  16.51065 [K], p_1: 2.68000 [A], shift/k_B:  -0.00819392 [K], tailcorrection: no
   Zn_c -      C2 [LENNARD_JONES] p_0/k_B:  16.51065 [K], p_1: 2.68000 [A], shift/k_B:  -0.00819392 [K], tailcorrection: no
   Zn_c -      C3 [LENNARD_JONES] p_0/k_B:  16.51065 [K], p_1: 2.68000 [A], shift/k_B:  -0.00819392 [K], tailcorrection: no
   Zn_c -      H2 [LENNARD_JONES] p_0/k_B:   6.89571 [K], p_1: 2.23500 [A], shift/k_B:  -0.00115133 [K], tailcorrection: no
   Zn_c -      H3 [LENNARD_JONES] p_0/k_B:   6.89571 [K], p_1: 2.21550 [A], shift/k_B:  -0.00109236 [K], tailcorrection: no
   Zn_c -      He [LENNARD_JONES] p_0/k_B:   8.28365 [K], p_1: 2.30000 [A], shift/k_B:  -0.00164263 [K], tailcorrection: no
   Zn_c -      Ow [LENNARD_JONES] p_0/k_B:  21.81798 [K], p_1: 2.53845 [A], shift/k_B:  -0.00781916 [K], tailcorrection: no
   Zn_c -      Hw [LENNARD_JONES] p_0/k_B:   4.95296 [K], p_1: 1.47000 [A], shift/k_B:  -0.00006695 [K], tailcorrection: no
   Zn_c -      Cl [LENNARD_JONES] p_0/k_B:  25.16086 [K], p_1: 2.73966 [A], shift/k_B:  -0.01425005 [K], tailcorrection: no
   Zn_c -      Na [LENNARD_JONES] p_0/k_B:   9.74873 [K], p_1: 2.30877 [A], shift/k_B:  -0.00197783 [K], tailcorrection: no
   Zn_c -      Xe [LENNARD_JONES] p_0/k_B:  25.79279 [K], p_1: 2.46000 [A], shift/k_B:  -0.00765683 [K], tailcorrection: no
   Zn_c -      Kr [LENNARD_JONES] p_0/k_B:  25.79279 [K], p_1: 2.46000 [A], shift/k_B:  -0.00765683 [K], tailcorrection: no
    N_s -     N_s [ZERO_POTENTIAL]
    N_s -     N_c [LENNARD_JONES] p_0/k_B:   0.00000 [K], p_1: 1.00000 [A], shift/k_B:  -0.00000000 [K], tailcorrection: no
    N_s -      C1 [LENNARD_JONES] p_0/k_B:   0.00000 [K], p_1: 1.00000 [A], shift/k_B:  -0.00000000 [K], tailcorrection: no
    N_s -      C2 [LENNARD_JONES] p_0/k_B:   0.00000 [K], p_1: 1.00000 [A], shift/k_B:  -0.00000000 [K], tailcorrection: no
    N_s -      C3 [LENNARD_JONES] p_0/k_B:   0.00000 [K], p_1: 1.00000 [A], shift/k_B:  -0.00000000 [K], tailcorrection: no
    N_s -      H2 [LENNARD_JONES] p_0/k_B:   0.00000 [K], p_1: 1.00000 [A], shift/k_B:  -0.00000000 [K], tailcorrection: no
    N_s -      H3 [ZERO_POTENTIAL]
    N_s -      He [ZERO_POTENTIAL]
    N_s -      Ow [LENNARD_JONES] p_0/k_B:   0.00000 [K], p_1: 1.00000 [A], shift/k_B:  -0.00000000 [K], tailcorrection: no
    N_s -      Hw [LENNARD_JONES] p_0/k_B:   0.00000 [K], p_1: 1.00000 [A], shift/k_B:  -0.00000000 [K], tailcorrection: no
    N_s -      Cl [ZERO_POTENTIAL]
    N_s -      Na [ZERO_POTENTIAL]
    N_s -      Xe [ZERO_POTENTIAL]
    N_s -      Kr [ZERO_POTENTIAL]
    N_c -     N_c [LENNARD_JONES] p_0/k_B:  85.59818 [K], p_1: 3.25000 [A], shift/k_B:  -0.13507214 [K], tailcorrection: no
    N_c -      C1 [LENNARD_JONES] p_0/k_B:  60.88184 [K], p_1: 3.32500 [A], shift/k_B:  -0.11015739 [K], tailcorrection: no
    N_c -      C2 [LENNARD_JONES] p_0/k_B:  60.88184 [K], p_1: 3.32500 [A], shift/k_B:  -0.11015739 [K], tailcorrection: no
    N_c -      C3 [LENNARD_JONES] p_0/k_B:  60.88184 [K], p_1: 3.32500 [A], shift/k_B:  -0.11015739 [K], tailcorrection: no
    N_c -      H2 [LENNARD_JONES] p_0/k_B:  25.42744 [K], p_1: 2.88000 [A], shift/k_B:  -0.01943332 [K], tailcorrection: no
    N_c -      H3 [LENNARD_JONES] p_0/k_B:  25.42744 [K], p_1: 2.86050 [A], shift/k_B:  -0.01865723 [K], tailcorrection: no
    N_c -      He [LENNARD_JONES] p_0/k_B:  30.54538 [K], p_1: 2.94500 [A], shift/k_B:  -0.02668916 [K], tailcorrection: no
    N_c -      Ow [LENNARD_JONES] p_0/k_B:  80.45226 [K], p_1: 3.18345 [A], shift/k_B:  -0.11213664 [K], tailcorrection: no
    N_c -      Hw [LENNARD_JONES] p_0/k_B:  18.26371 [K], p_1: 2.11500 [A], shift/k_B:  -0.00218983 [K], tailcorrection: no
    N_c -      Cl [LENNARD_JONES] p_0/k_B:  92.77890 [K], p_1: 3.38466 [A], shift/k_B:  -0.18676406 [K], tailcorrection: no
    N_c -      Na [LENNARD_JONES] p_0/k_B:  35.94776 [K], p_1: 2.95378 [A], shift/k_B:  -0.03197512 [K], tailcorrection: no
    N_c -      Xe [LENNARD_JONES] p_0/k_B:  95.10909 [K], p_1: 3.10500 [A], shift/k_B:  -0.11413894 [K], tailcorrection: no
    N_c -      Kr [LENNARD_JONES] p_0/k_B:  95.10909 [K], p_1: 3.10500 [A], shift/k_B:  -0.11413894 [K], tailcorrection: no
     C1 -      C1 [LENNARD_JONES] p_0/k_B:  43.30231 [K], p_1: 3.40000 [A], shift/k_B:  -0.08956376 [K], tailcorrection: no
     C1 -      C2 [LENNARD_JONES] p_0/k_B:  43.30231 [K], p_1: 3.40000 [A], shift/k_B:  -0.08956376 [K], tailcorrection: no
     C1 -      C3 [LENNARD_JONES] p_0/k_B:  43.30231 [K], p_1: 3.40000 [A], shift/k_B:  -0.08956376 [K], tailcorrection: no
     C1 -      H2 [LENNARD_JONES] p_0/k_B:  18.08531 [K], p_1: 2.95500 [A], shift/k_B:  -0.01612674 [K], tailcorrection: no
     C1 -      H3 [LENNARD_JONES] p_0/k_B:  18.08531 [K], p_1: 2.93550 [A], shift/k_B:  -0.01549879 [K], tailcorrection: no
     C1 -      He [LENNARD_JONES] p_0/k_B:  21.72545 [K], p_1: 3.02000 [A], shift/k_B:  -0.02207357 [K], tailcorrection: no
     C1 -      Ow [LENNARD_JONES] p_0/k_B:  57.22180 [K], p_1: 3.25845 [A], shift/k_B:  -0.09171203 [K], tailcorrection: no
     C1 -      Hw [LENNARD_JONES] p_0/k_B:  12.99009 [K], p_1: 2.19000 [A], shift/k_B:  -0.00191970 [K], tailcorrection: no
     C1 -      Cl [LENNARD_JONES] p_0/k_B:  65.98914 [K], p_1: 3.45966 [A], shift/k_B:  -0.15149421 [K], tailcorrection: no
     C1 -      Na [LENNARD_JONES] p_0/k_B:  25.56790 [K], p_1: 3.02877 [A], shift/k_B:  -0.02643367 [K], tailcorrection: no
     C1 -      Xe [LENNARD_JONES] p_0/k_B:  67.64649 [K], p_1: 3.18000 [A], shift/k_B:  -0.09367638 [K], tailcorrection: no
     C1 -      Kr [LENNARD_JONES] p_0/k_B:  67.64649 [K], p_1: 3.18000 [A], shift/k_B:  -0.09367638 [K], tailcorrection: no
     C2 -      C2 [LENNARD_JONES] p_0/k_B:  43.30231 [K], p_1: 3.40000 [A], shift/k_B:  -0.08956376 [K], tailcorrection: no
     C2 -      C3 [LENNARD_JONES] p_0/k_B:  43.30231 [K], p_1: 3.40000 [A], shift/k_B:  -0.08956376 [K], tailcorrection: no
     C2 -      H2 [LENNARD_JONES] p_0/k_B:  18.08531 [K], p_1: 2.95500 [A], shift/k_B:  -0.01612674 [K], tailcorrection: no
     C2 -      H3 [LENNARD_JONES] p_0/k_B:  18.08531 [K], p_1: 2.93550 [A], shift/k_B:  -0.01549879 [K], tailcorrection: no
     C2 -      He [LENNARD_JONES] p_0/k_B:  21.72545 [K], p_1: 3.02000 [A], shift/k_B:  -0.02207357 [K], tailcorrection: no
     C2 -      Ow [LENNARD_JONES] p_0/k_B:  57.22180 [K], p_1: 3.25845 [A], shift/k_B:  -0.09171203 [K], tailcorrection: no
     C2 -      Hw [LENNARD_JONES] p_0/k_B:  12.99009 [K], p_1: 2.19000 [A], shift/k_B:  -0.00191970 [K], tailcorrection: no
     C2 -      Cl [LENNARD_JONES] p_0/k_B:  65.98914 [K], p_1: 3.45966 [A], shift/k_B:  -0.15149421 [K], tailcorrection: no
     C2 -      Na [LENNARD_JONES] p_0/k_B:  25.56790 [K], p_1: 3.02877 [A], shift/k_B:  -0.02643367 [K], tailcorrection: no
     C2 -      Xe [LENNARD_JONES] p_0/k_B:  67.64649 [K], p_1: 3.18000 [A], shift/k_B:  -0.09367638 [K], tailcorrection: no
     C2 -      Kr [LENNARD_JONES] p_0/k_B:  67.64649 [K], p_1: 3.18000 [A], shift/k_B:  -0.09367638 [K], tailcorrection: no
     C3 -      C3 [LENNARD_JONES] p_0/k_B:  43.30231 [K], p_1: 3.40000 [A], shift/k_B:  -0.08956376 [K], tailcorrection: no
     C3 -      H2 [LENNARD_JONES] p_0/k_B:  18.08531 [K], p_1: 2.95500 [A], shift/k_B:  -0.01612674 [K], tailcorrection: no
     C3 -      H3 [LENNARD_JONES] p_0/k_B:  18.08531 [K], p_1: 2.93550 [A], shift/k_B:  -0.01549879 [K], tailcorrection: no
     C3 -      He [LENNARD_JONES] p_0/k_B:  21.72545 [K], p_1: 3.02000 [A], shift/k_B:  -0.02207357 [K], tailcorrection: no
     C3 -      Ow [LENNARD_JONES] p_0/k_B:  57.22180 [K], p_1: 3.25845 [A], shift/k_B:  -0.09171203 [K], tailcorrection: no
     C3 -      Hw [LENNARD_JONES] p_0/k_B:  12.99009 [K], p_1: 2.19000 [A], shift/k_B:  -0.00191970 [K], tailcorrection: no
     C3 -      Cl [LENNARD_JONES] p_0/k_B:  65.98914 [K], p_1: 3.45966 [A], shift/k_B:  -0.15149421 [K], tailcorrection: no
     C3 -      Na [LENNARD_JONES] p_0/k_B:  25.56790 [K], p_1: 3.02877 [A], shift/k_B:  -0.02643367 [K], tailcorrection: no
     C3 -      Xe [LENNARD_JONES] p_0/k_B:  67.64649 [K], p_1: 3.18000 [A], shift/k_B:  -0.09367638 [K], tailcorrection: no
     C3 -      Kr [LENNARD_JONES] p_0/k_B:  67.64649 [K], p_1: 3.18000 [A], shift/k_B:  -0.09367638 [K], tailcorrection: no
     H2 -      H2 [LENNARD_JONES] p_0/k_B:   7.55337 [K], p_1: 2.51000 [A], shift/k_B:  -0.00252999 [K], tailcorrection: no
     H2 -      H3 [LENNARD_JONES] p_0/k_B:   7.55337 [K], p_1: 2.49050 [A], shift/k_B:  -0.00241434 [K], tailcorrection: no
     H2 -      He [LENNARD_JONES] p_0/k_B:   9.07368 [K], p_1: 2.57500 [A], shift/k_B:  -0.00354305 [K], tailcorrection: no
     H2 -      Ow [LENNARD_JONES] p_0/k_B:  23.89882 [K], p_1: 2.81345 [A], shift/k_B:  -0.01587493 [K], tailcorrection: no
     H2 -      Hw [LENNARD_JONES] p_0/k_B:   5.42534 [K], p_1: 1.74500 [A], shift/k_B:  -0.00020520 [K], tailcorrection: no
     H2 -      Cl [LENNARD_JONES] p_0/k_B:  27.56052 [K], p_1: 3.01466 [A], shift/k_B:  -0.02770644 [K], tailcorrection: no
     H2 -      Na [LENNARD_JONES] p_0/k_B:  10.67849 [K], p_1: 2.58378 [A], shift/k_B:  -0.00425566 [K], tailcorrection: no
     H2 -      Xe [LENNARD_JONES] p_0/k_B:  28.25271 [K], p_1: 2.73500 [A], shift/k_B:  -0.01583856 [K], tailcorrection: no
     H2 -      Kr [LENNARD_JONES] p_0/k_B:  28.25271 [K], p_1: 2.73500 [A], shift/k_B:  -0.01583856 [K], tailcorrection: no
     H3 -      H3 [LENNARD_JONES] p_0/k_B:   7.55337 [K], p_1: 2.47100 [A], shift/k_B:  -0.00230312 [K], tailcorrection: no
     H3 -      He [LENNARD_JONES] p_0/k_B:   9.07368 [K], p_1: 2.55550 [A], shift/k_B:  -0.00338510 [K], tailcorrection: no
     H3 -      Ow [LENNARD_JONES] p_0/k_B:  23.89882 [K], p_1: 2.79395 [A], shift/k_B:  -0.01522620 [K], tailcorrection: no
     H3 -      Hw [LENNARD_JONES] p_0/k_B:   5.42534 [K], p_1: 1.72550 [A], shift/k_B:  -0.00019182 [K], tailcorrection: no
     H3 -      Cl [LENNARD_JONES] p_0/k_B:  27.56052 [K], p_1: 2.99516 [A], shift/k_B:  -0.02664864 [K], tailcorrection: no
     H3 -      Na [LENNARD_JONES] p_0/k_B:  10.67849 [K], p_1: 2.56428 [A], shift/k_B:  -0.00406657 [K], tailcorrection: no
     H3 -      Xe [LENNARD_JONES] p_0/k_B:  28.25271 [K], p_1: 2.71550 [A], shift/k_B:  -0.01517306 [K], tailcorrection: no
     H3 -      Kr [LENNARD_JONES] p_0/k_B:  28.25271 [K], p_1: 2.71550 [A], shift/k_B:  -0.01517306 [K], tailcorrection: no
     He -      He [LENNARD_JONES] p_0/k_B:  10.90000 [K], p_1: 2.64000 [A], shift/k_B:  -0.00494280 [K], tailcorrection: no
     He -      Ow [LENNARD_JONES] p_0/k_B:  28.70908 [K], p_1: 2.87845 [A], shift/k_B:  -0.02187062 [K], tailcorrection: no
     He -      Hw [LENNARD_JONES] p_0/k_B:   6.51733 [K], p_1: 1.81000 [A], shift/k_B:  -0.00030698 [K], tailcorrection: no
     He -      Cl [LENNARD_JONES] p_0/k_B:  33.10779 [K], p_1: 3.07966 [A], shift/k_B:  -0.03782642 [K], tailcorrection: no
     He -      Na [LENNARD_JONES] p_0/k_B:  12.82782 [K], p_1: 2.64878 [A], shift/k_B:  -0.00593397 [K], tailcorrection: no
     He -      Xe [LENNARD_JONES] p_0/k_B:  33.93931 [K], p_1: 2.80000 [A], shift/k_B:  -0.02190552 [K], tailcorrection: no
     He -      Kr [LENNARD_JONES] p_0/k_B:  33.93931 [K], p_1: 2.80000 [A], shift/k_B:  -0.02190552 [K], tailcorrection: no
     Ow -      Ow [LENNARD_JONES] p_0/k_B:  75.61570 [K], p_1: 3.11690 [A], shift/k_B:  -0.09285137 [K], tailcorrection: no
     Ow -      Hw [LENNARD_JONES] p_0/k_B:  17.16574 [K], p_1: 2.04845 [A], shift/k_B:  -0.00169893 [K], tailcorrection: no
     Ow -      Cl [LENNARD_JONES] p_0/k_B:  87.20130 [K], p_1: 3.31811 [A], shift/k_B:  -0.15582817 [K], tailcorrection: no
     Ow -      Na [LENNARD_JONES] p_0/k_B:  33.78668 [K], p_1: 2.88722 [A], shift/k_B:  -0.02621305 [K], tailcorrection: no
     Ow -      Xe [LENNARD_JONES] p_0/k_B:  89.39140 [K], p_1: 3.03845 [A], shift/k_B:  -0.09420336 [K], tailcorrection: no
     Ow -      Kr [LENNARD_JONES] p_0/k_B:  89.39140 [K], p_1: 3.03845 [A], shift/k_B:  -0.09420336 [K], tailcorrection: no
     Hw -      Hw [LENNARD_JONES] p_0/k_B:   3.89685 [K], p_1: 0.98000 [A], shift/k_B:  -0.00000462 [K], tailcorrection: no
     Hw -      Cl [LENNARD_JONES] p_0/k_B:  19.79582 [K], p_1: 2.24966 [A], shift/k_B:  -0.00343739 [K], tailcorrection: no
     Hw -      Na [LENNARD_JONES] p_0/k_B:   7.67001 [K], p_1: 1.81878 [A], shift/k_B:  -0.00037191 [K], tailcorrection: no
     Hw -      Xe [LENNARD_JONES] p_0/k_B:  20.29301 [K], p_1: 1.97000 [A], shift/k_B:  -0.00158894 [K], tailcorrection: no
     Hw -      Kr [LENNARD_JONES] p_0/k_B:  20.29301 [K], p_1: 1.97000 [A], shift/k_B:  -0.00158894 [K], tailcorrection: no
     Cl -      Cl [LENNARD_JONES] p_0/k_B: 100.56200 [K], p_1: 3.51932 [A], shift/k_B:  -0.25578939 [K], tailcorrection: no
     Cl -      Na [LENNARD_JONES] p_0/k_B:  38.96337 [K], p_1: 3.08844 [A], shift/k_B:  -0.04528283 [K], tailcorrection: no
     Cl -      Xe [LENNARD_JONES] p_0/k_B: 103.08767 [K], p_1: 3.23966 [A], shift/k_B:  -0.15959073 [K], tailcorrection: no
     Cl -      Kr [LENNARD_JONES] p_0/k_B: 103.08767 [K], p_1: 3.23966 [A], shift/k_B:  -0.15959073 [K], tailcorrection: no
     Na -      Na [LENNARD_JONES] p_0/k_B:  15.09660 [K], p_1: 2.65755 [A], shift/k_B:  -0.00712343 [K], tailcorrection: no
     Na -      Xe [LENNARD_JONES] p_0/k_B:  39.94196 [K], p_1: 2.80877 [A], shift/k_B:  -0.02626831 [K], tailcorrection: no
     Na -      Kr [LENNARD_JONES] p_0/k_B:  39.94196 [K], p_1: 2.80877 [A], shift/k_B:  -0.02626831 [K], tailcorrection: no
     Xe -      Xe [LENNARD_JONES] p_0/k_B: 105.67677 [K], p_1: 2.96000 [A], shift/k_B:  -0.09519288 [K], tailcorrection: no
     Xe -      Kr [LENNARD_JONES] p_0/k_B: 105.67677 [K], p_1: 2.96000 [A], shift/k_B:  -0.09519288 [K], tailcorrection: no
     Kr -      Kr [LENNARD_JONES] p_0/k_B: 105.67677 [K], p_1: 2.96000 [A], shift/k_B:  -0.09519288 [K], tailcorrection: no


MoleculeDefinitions:
===========================================================================
Component 0 [fake_solvent] (Adsorbate molecule)

	MoleculeDefinitions: TraPPE
	Component contains (at least some) atoms which are charged
	Component contains no atoms with point dipoles (polarization)
	Component has a net charge of 0.000000

	Ideal chain Rosenbluth weight: 1
	Ideal chain total energy: 0.000000

	Critical temparure [K]: 0.000000
	Critical pressure [Pa]: 0.000000
	Acentric factor [-]: 0.000000

	RXMC partition factor [-]: 0.000000

	Fluid is supercritical

	MolFraction:           1.0000000000 [-]
	Compressibility:                nan [-]

	Density of the bulk fluid phase:                nan [kg/m^3]

	Binary mixture EOS parameters:  (0): 0.000000

	Amount of excess molecules:                nan [-]

	Conversion factor molecules/unit cell -> mol/kg:       0.0162912443 [-]
	Conversion factor molecules/unit cell -> gr/gr:       0.5213002689 [-]
	Conversion factor molecules/unit cell -> cm^3 STP/gr:       0.3651515552 [-]
	Conversion factor molecules/unit cell -> cm^3 STP/cm^3:       0.1185790080 [-]
	Conversion factor mol/kg -> cm^3 STP/gr:      22.4139757476 [-]
	Conversion factor mol/kg -> cm^3 STP/cm^3:       7.2786955777 [-]

	Partial pressure:  10000000.00000000000000 [Pa]
	                      75000.00000000000000 [Torr]
	                        100.00000000000000 [bar]
	                         98.69232667160129 [atm]

	Fugacity coefficient:       1.0000000000 [-]

	Partial fugacity:  10000000.00000000000000 [Pa]
	                      75000.00000000000000 [Torr]
	                        100.00000000000000 [bar]
	                         98.69232667160129 [atm]

	Molecule contains 2 number of atoms
		atom:    0  is of type:   15 [        Xe] (group: 0)
		atom:    1  is of type:   16 [        Kr] (group: 0)

	Molecule contains 0 chirality centers

	Molecule contains 1 number of groups

		group: 0 containing: 2 elements
		-------------------------------------------------
		the group is rigid and linear
		Mass: 31.998800 [a.u.]
		Mass: 0.169287 [kg/m^3]

		Rotational Degrees of freedom: 2
		Diagonalized inertia vector:       7.9997000000
		                                   7.9997000000
		                                   0.0000000000
		number of atoms: 2
			element: 0 atom: 0 [        Xe] Charge: -0.350000 Anisotropy: 0.000000 Position:  0.000000 -0.000000  0.500000 Connectivity: 1 (1 )
			element: 1 atom: 1 [        Kr] Charge:  0.350000 Anisotropy: 0.000000 Position:  0.000000 -0.000000 -0.500000 Connectivity: 1 (0 )
		number of permanent dipoles: 0
		number of polarizabilities: 0

		Dipole:           1.6811223797 [D]
		Quadrupole:       0.0000000000       0.0000000000       0.0000000000 [D Angstrom]
		Quadrupole tensor [D Angstrom]
				       0.0000000000       0.0000000000       0.0000000000
				       0.0000000000       0.0000000000       0.0000000000
				       0.0000000000       0.0000000000       0.0000000000

	Starting bead for growth               : 0

	Degrees of freedom                     : 0
	Translational degrees of freedom       : 0
	Rotational degrees of freedom          : 0
	Vibrational degrees of freedom         : 0
	Constraint degrees of freedom          : 0

	Number of atoms                        : 2

	Number of constraint bonds             : 0
	Number of constraint bends             : 0
	Number of constraint inversion bends   : 0
	Number of constraint torsions          : 0
	Number of constraint improper torsions : 0
	Number of constraint improper torsions : 0

	Number of bonds                        : 1
	Number of Urey-Bradleys                : 0
	Number of bends                        : 0
	Number of inversion bends              : 0
	Number of torsions                     : 0
	Number of improper torsions            : 0
	Number of improper torsions            : 0

	Number of bond/bond cross terms        : 0
	Number of bond/bend cross terms        : 0
	Number of bend/bend cross terms        : 0
	Number of stretch/torsion cross terms  : 0
	Number of bend/torsion cross terms     : 0

	Number of charges                      : 2
	Number of bond-dipoles                 : 0

	Number of intra Van der Waals                             : 0
	Number of intra charge-charge Coulomb                     : 0
	Number of intra charge-bonddipole Coulomb                 : 0
	Number of intra bonddipole-bonddipole Coulomb             : 0

	Number of excluded intra charge-charge Coulomb                     : 1
	Number of excluded intra charge-bonddipole Coulomb                 : 0
	Number of excluded intra bonddipole-bonddipole Coulomb             : 0

	Number of cbmc-config moves                               : 0

	Particle Moves:             
		ProbabilityTranslationMove:                  25.000000
			TranslationDirection:      XYZ
		Percentage of random translation moves:            0.000000
		Percentage of rotation moves:                      25.000000
		Percentage of random rotation moves:               0.000000
		Percentage of partial reinsertion moves:           0.000000
		Percentage of reinsertion moves:                   25.000000
		Percentage of reinsertion-in-place moves:          0.000000
		Percentage of reinsertion-in-plane moves:          0.000000
		Percentage of identity-change moves:               0.000000
		Percentage of swap (insert/delete) moves:          25.000000
		Percentage of CF swap lambda moves:                0.000000
		Percentage of CB/CFMC swap lambda moves:           0.000000
		Percentage of Widom insertion moves:               0.000000
		Percentage of CF-Widom insertion moves:            0.000000
		Percentage of Gibbs Widom insertion moves:         0.000000
		Percentage of surface-area moves:                  0.000000
		Percentage of Gibbs particle-transfer moves:       0.000000
		Percentage of Gibbs identity-change moves:         0.000000
		Percentage of CF Gibbs lambda-transfer moves:      0.000000
		Percentage of CB/CFMC Gibbs lambda-transfer moves: 0.000000
		Percentage of exchange frac./int. particle moves:  0.000000
		Percentage of fractional mol. to other box moves:  0.000000
		Percentage of lambda-change moves:                 0.000000
		Percentage of fractional to integer moves:         0.000000

	System Moves:
		Percentage of parallel-tempering moves:            0.000000
		Percentage of hyper-parallel-tempering moves:      0.000000
		Percentage of parallel-mol-fraction moves:         0.000000
			   Component A: 0 B: 1
		Percentage of chiral inversion moves:              0.000000
		Percentage of Hybrid-NVE moves:                    0.000000
		Percentage of Hybrid-NPH moves:                    0.000000
		Percentage of Hybrid-NPHPR moves:                  0.000000
		Percentage of volume-change moves:                 0.000000
		Percentage of box-shape-change moves:              0.000000
		Percentage of Gibbs volume-change moves:           0.000000
		Percentage of framework-change moves:              0.000000
		Percentage of framework-shift moves:               0.000000
		Percentage of reactive MC moves:                   0.000000

	Moves are restricted: No
	No biased sampling used for this component

	Number of Bonds: 1
	--------------------------------------------
	Bond interaction 0: A=0 B=1 Type:RIGID_BOND
		r_0=1.0000000000       [A]


	number of identity-config changes: 1
	--------------------------------------------
	nr fixed 1: 0 

	Number of pockets blocked in a unitcell: 0
		Pockets are NOT blocked for this component



Framework Status
===========================================================================
Lowenstein's rule obeyed by framework
	Framework is modelled as: rigid

	Number of charges:                               6228
	Number of bonddipoles:                           0


System Properties
===========================================================================
Unit cell size: 67.959999 67.959999 67.959999
Cell angles (radians)  alpha: 1.570796 beta: 1.570796 gamma: 1.570796
Cell angles (degrees)  alpha: 90.000000 beta: 90.000000 gamma: 90.000000
Number of unitcells [a]: 1
Number of unitcells [b]: 1
Number of unitcells [c]: 1

TRICLINIC Boundary conditions: alpha!=90 or beta!=90 or gamma!=90

Cartesian axis A is collinear with crystallographic axis a
Cartesian axis B is collinear with (axb)xA
Cartesian axis C is collinear with (axb)

lengths of cell vectors:
 67.96000  67.96000  67.96000
cosines of cell angles:
  0.00000   0.00000   0.00000
perpendicular cell widths:
 67.96000  67.96000  67.96000
volume of the cell: 313877.433865883911 (A^3)

Orthogonalization matrix Box
Transforms fractional coordinates abc into orthonormal Cartesian coordinates xyz
Deorthogonalization matrix InverseBox
Transforms orthonormal Cartesian coordinates xyz into fractional coordinates xyz

Box[0]:
	   67.959999100000     0.000000000000     0.000000000000
	    0.000000000000    67.959999100000     0.000000000000
	    0.000000000000     0.000000000000    67.959999100000

Inverse box[0]:
	    0.014714538158    -0.000000000000    -0.000000000000
	    0.000000000000     0.014714538158    -0.000000000000
	    0.000000000000     0.000000000000     0.014714538158


Unitcell box[0]:
	   67.959999100000     0.000000000000     0.000000000000
	    0.000000000000    67.959999100000     0.000000000000
	    0.000000000000     0.000000000000    67.959999100000

Unitcell inverse box[0]:
	    0.014714538158    -0.000000000000    -0.000000000000
	    0.000000000000     0.014714538158    -0.000000000000
	    0.000000000000     0.000000000000     0.014714538158

lengths of cell vectors (inverse box):
  0.01471   0.01471   0.01471
cosines of cell angles (inverse box):
 -0.00000  -0.00000  -0.00000
perpendicular cell widths (inverse):
  0.01471   0.01471   0.01471
volume of the cell: 313877.433865883911 (A^3)

No replicas are used
Framework is simulated as 'rigid'
Number of framework atoms: 6228
Number of framework atoms in the unit cell: 6228
Framework Mass: 61382.665439999175 [g/mol]
Framework Density:   324.739156482035 [kg/m^3]    3.0793945849746 [cm^3/g]
Helium void fraction:    0.00000000
Available pore volume:    0.00000000 [A^3]    0.00000000 [cm^3/g]
Conversion factor from molecule/unit cell -> kmol/m^3: 0.0052904, kmol/m^3 accesible pore volume: inf

Number Of Frameworks (per system): 1
----------------------------------------------------------------------
Framework name: p1_fromPDBFile_topol
Space group: 1
	Identifier: 1
	short international Hermann-Mauguin symbol: P 1
	long international Hermann-Mauguin symbol: P 1
	Hall symbol: P 1
	Number of lattice translations: 1 [ (0,0,0) ]
	acentric/centric: acentric
	chiral: no
	enantiomorphic: no
	number of operators: 1
		'x,y,z'
Framework is simulated as 'rigid'
Shift: 0.000000 0.000000 0.000000
Number of framework atoms: 6228
Number of asymmetric atoms: 6228
Number of free framework atoms: 0
Number of fixed framework atoms: 6228
Number of framework atoms in the unit cell: 6228
Framework Mass: 61382.665439999175 [g/mol]
Framework Density:   324.739156482035 [kg/m^3]
Framework has net charge: -0.000000
         largest charge : 0.437500
         smallest charge: -0.470300

Using FULL Host-guest interaction calculation (for testing purposes)

Current Atom Status
===========================================================================
Number of framework atoms        : 6228
Number of cations molecules      : 0
Number of adsorbate molecules    : 100
Component    0 :  100 molecules
Pseudo Atoms    0 [    UNIT]:    0 atoms
Pseudo Atoms    1 [    Zn_s]:  576 atoms
Pseudo Atoms    2 [    Zn_c]:  144 atoms
Pseudo Atoms    3 [     N_s]:  576 atoms
Pseudo Atoms    4 [     N_c]:  576 atoms
Pseudo Atoms    5 [      C1]:  288 atoms
Pseudo Atoms    6 [      C2]:  576 atoms
Pseudo Atoms    7 [      C3]:  288 atoms
Pseudo Atoms    8 [      H2]:  576 atoms
Pseudo Atoms    9 [      H3]:  864 atoms
Pseudo Atoms   10 [      He]:    0 atoms
Pseudo Atoms   11 [      Ow]:    0 atoms
Pseudo Atoms   12 [      Hw]:    0 atoms
Pseudo Atoms   13 [      Cl]:    0 atoms
Pseudo Atoms   14 [      Na]:    0 atoms
Pseudo Atoms   15 [      Xe]:  982 atoms
Pseudo Atoms   16 [      Kr]:  982 atoms


Current (initial full energy) Energy Status
===========================================================================

Internal energy:
Host stretch energy:                                            0.00000000
Host UreyBradley energy:                                        0.00000000
Host bend energy:                                               0.00000000
Host inversion-bend energy:                                     0.00000000
Host torsion energy:                                            0.00000000
Host improper torsion energy:                                   0.00000000
Host out-of-plane energy:                                       0.00000000
Host stretch/stretch energy:                                    0.00000000
Host bend/bend energy:                                          0.00000000
Host stretch/bend energy:                                       0.00000000
Host stretch/torsion energy:                                    0.00000000
Host bend/torsion energy:                                       0.00000000

Adsorbate stretch energy:                                       0.00000000
Adsorbate UreyBradley energy:                                   0.00000000
Adsorbate bend energy:                                          0.00000000
Adsorbate inversion-bend energy:                                0.00000000
Adsorbate torsion energy:                                       0.00000000
Adsorbate improper torsion energy:                              0.00000000
Adsorbate out-of-plane energy:                                  0.00000000
Adsorbate stretch/stretch energy:                               0.00000000
Adsorbate bend/bend energy:                                     0.00000000
Adsorbate stretch/bend energy:                                  0.00000000
Adsorbate stretch/torsion energy:                               0.00000000
Adsorbate bend/torsion energy:                                  0.00000000
Adsorbate intra VDW energy:                                     0.00000000
Adsorbate intra charge-charge Coulomb energy:                   0.00000000
Adsorbate intra charge-bonddipole Coulomb energy:               0.00000000
Adsorbate intra bonddipole-bonddipole Coulomb energy:           0.00000000

Cation stretch energy:                                          0.00000000
Cation UreyBradley energy:                                      0.00000000
Cation bend energy:                                             0.00000000
Cation inversion-bend energy:                                   0.00000000
Cation torsion energy:                                          0.00000000
Cation improper torsion energy:                                 0.00000000
Cation out-of-plane energy:                                     0.00000000
Cation stretch/stretch energy:                                  0.00000000
Cation bend/bend energy:                                        0.00000000
Cation stretch/bend energy:                                     0.00000000
Cation stretch/torsion energy:                                  0.00000000
Cation bend/torsion energy:                                     0.00000000
Cation intra VDW energy:                                        0.00000000
Cation intra charge-charge Coulomb energy:                      0.00000000
Cation intra charge-bonddipole Coulomb energy:                  0.00000000
Cation intra bonddipole-bonddipole Coulomb energy:              0.00000000

Host/Host energy:                                             0.00000000
	Host/Host VDW energy:                                         0.00000000
	Host/Host Coulomb energy:                                     0.00000000
	Host/Host charge-charge Real energy:                          0.00000000
	Host/Host charge-charge Fourier energy:                       0.00000000
	Host/Host charge-bonddipole Real energy:                      0.00000000
	Host/Host charge-bonddipole Fourier energy:                   0.00000000
	Host/Host bondipole-bonddipole Real energy:                   0.00000000
	Host/Host bondipole-bonddipole Fourier energy:                0.00000000

Host/Adsorbate energy:                                   -16935.80853172
	Host/Adsorbate VDW energy:                               -24801.85155827
	Host/Adsorbate Coulomb energy:                             7866.04302655
	Host/Adsorbate charge-charge Real energy:                  3131.21121017
	Host/Adsorbate charge-charge Fourier energy:               4734.83181638
	Host/Adsorbate charge-bonddipole Real energy:                 0.00000000
	Host/Adsorbate charge-bonddipole Fourier energy:              0.00000000
	Host/Adsorbate bondipole-bonddipole Real energy:              0.00000000
	Host/Adsorbate bondipole-bonddipole Fourier energy:           0.00000000

Host/Cation energy:                                           0.00000000
	Host/Cation VDW energy:                                       0.00000000
	Host/Cation Coulomb energy:                                   0.00000000
	Host/Cation charge-charge Real energy:                        0.00000000
	Host/Cation charge-charge Fourier energy:                     0.00000000
	Host/Cation charge-bonddipole Real energy:                    0.00000000
	Host/Cation charge-bonddipole Fourier energy:                 0.00000000
	Host/Cation bondipole-bonddipole Real energy:                 0.00000000
	Host/Cation bondipole-bonddipole Fourier energy:              0.00000000

Adsorbate/Adsorbate energy:                                    -1843.97532849
	Adsorbate/Adsorbate VDW energy:                                -2895.69500182
	Adsorbate/Adsorbate Coulomb energy:                             1051.71967333
	Adsorbate/Adsorbate charge-charge Real energy:                   864.11593253
	Adsorbate/Adsorbate charge-charge Fourier energy:                187.60374080
	Adsorbate/Adsorbate charge-bonddipole Real energy:                 0.00000000
	Adsorbate/Adsorbate charge-bonddipole Fourier energy:              0.00000000
	Adsorbate/Adsorbate bondipole-bonddipole Real energy:              0.00000000
	Adsorbate/Adsorbate bondipole-bonddipole Fourier energy:           0.00000000

Adsorbate/Cation energy:                                           0.00000000
	Adsorbate/Cation VDW energy:                                       0.00000000
	Adsorbate/Cation Coulomb energy:                                   0.00000000
	Adsorbate/Cation charge-charge Real energy:                        0.00000000
	Adsorbate/Cation charge-charge Fourier energy:                     0.00000000
	Adsorbate/Cation charge-bonddipole Real energy:                    0.00000000
	Adsorbate/Cation charge-bonddipole Fourier energy:                 0.00000000
	Adsorbate/Cation bondipole-bonddipole Real energy:                 0.00000000
	Adsorbate/Cation bondipole-bonddipole Fourier energy:              0.00000000

Cation/Cation energy:                                           0.00000000
	Cation/Cation VDW energy:                                       0.00000000
	Cation/Cation Coulomb energy:                                   0.00000000
	Cation/Cation charge-charge Real energy:                        0.00000000
	Cation/Cation charge-charge Fourier energy:                     0.00000000
	Cation/Cation charge-bonddipole Real energy:                    0.00000000
	Cation/Cation charge-bonddipole Fourier energy:                 0.00000000
	Cation/Cation bondipole-bonddipole Real energy:                 0.00000000
	Cation/Cation bondipole-bonddipole Fourier energy:              0.00000000

Polarization energy:
	Host polarization energy:                                     0.00000000
	Adsorbate polarization energy:                                0.00000000
	Cation polarization energy:                                   0.00000000
	Host back-polarization energy:                                     0.00000000
	Adsorbate back-polarization energy:                                0.00000000
	Cation back-polarization energy:                                   0.00000000

Tail-correction energy:                                       0.00000000

Distance constraints energy:                                  0.00000000
Angle constraints energy:                                     0.00000000
Dihedral constraints energy:                                  0.00000000
Inversion-bend constraints energy:                            0.00000000
Out-of-plane distance constraints energy:                     0.00000000
Exclusion constraints energy:                                 0.00000000

===================================================================
Total energy: -18779.783860218045
	Total Van der Waals: -27697.546560
	Total Coulomb: 8917.762700

	Total Polarization: 0.000000







+++++++++++++++++++++++++++++++++++++++++++++++++++++++++++++++++++++++++
Starting simulation
+++++++++++++++++++++++++++++++++++++++++++++++++++++++++++++++++++++++++

[Init] Current cycle: 0 out of 1000
========================================================================================================

Net charge: -1.94011e-13 (F: -1.94011e-13, A: 0, C: 0)
Current Box:  67.96000   0.00000   0.00000 [A]
               0.00000  67.96000   0.00000 [A]
               0.00000   0.00000  67.96000 [A]
Box-lengths:  67.96000  67.96000  67.96000 Box-angles:   90.00000  90.00000  90.00000 [degrees]
Volume: 313877.43387 [A^3]

Loadings per component:
----------------------------------------------------------------------------------------------------------------------------------------------------
Component 0 (fake_solvent), current number of integer/fractional/reaction molecules: 100/0/0, density:  16.92868 [kg/m^3]
	absolute adsorption: 100.00000 [mol/uc],         1.6291 [mol/kg],             52.1300 [mg/g]
	                                                36.5152 [cm^3 STP/g],         11.8579 [cm^3 STP/cm^3]
	excess adsorption:         nan [mol/uc],            nan [mol/kg],                 nan [mg/g]
	                                                    nan [cm^3 STP/g],             nan [cm^3 STP/cm^3]
----------------------------------------------------------------------------------------------------------------------------------------------------
Degrees of freedom: 500 0 500 0
Number of Framework-atoms:   6228
Number of Adsorbates:         100 (100 integer, 0 fractional, 0 reaction)
Number of Cations:              0 (0 integer, 0 fractional, 0 reaction

Current total potential energy:            -18779.7838602180 [K]
	Current Host-Host energy:                     0.0000000000 [K]
	Current Host-Adsorbate energy:           -16935.8085317250 [K]
	Current Host-Cation energy:                   0.0000000000 [K]
	Current Adsorbate-Adsorbate energy:       -1843.9753284931 [K]
	Current Cation-Cation energy:                 0.0000000000 [K]
	Current Adsorbate-Cation energy:              0.0000000000 [K]



[Init] Current cycle: 10 out of 1000
========================================================================================================

Net charge: -1.94011e-13 (F: -1.94011e-13, A: 0, C: 0)
Current Box:  67.96000   0.00000   0.00000 [A]
               0.00000  67.96000   0.00000 [A]
               0.00000   0.00000  67.96000 [A]
Box-lengths:  67.96000  67.96000  67.96000 Box-angles:   90.00000  90.00000  90.00000 [degrees]
Volume: 313877.43387 [A^3]

Loadings per component:
----------------------------------------------------------------------------------------------------------------------------------------------------
Component 0 (fake_solvent), current number of integer/fractional/reaction molecules: 237/0/0, density:  40.12096 [kg/m^3]
	absolute adsorption: 237.00000 [mol/uc],         3.8610 [mol/kg],            123.5482 [mg/g]
	                                                86.5409 [cm^3 STP/g],         28.1032 [cm^3 STP/cm^3]
	excess adsorption:         nan [mol/uc],            nan [mol/kg],                 nan [mg/g]
	                                                    nan [cm^3 STP/g],             nan [cm^3 STP/cm^3]
----------------------------------------------------------------------------------------------------------------------------------------------------
Degrees of freedom: 1185 0 1185 0
Number of Framework-atoms:   6228
Number of Adsorbates:         237 (237 integer, 0 fractional, 0 reaction)
Number of Cations:              0 (0 integer, 0 fractional, 0 reaction

Current total potential energy:           -139464.3571203766 [K]
	Current Host-Host energy:                     0.0000000000 [K]
	Current Host-Adsorbate energy:          -111112.4989344042 [K]
	Current Host-Cation energy:                   0.0000000000 [K]
	Current Adsorbate-Adsorbate energy:      -28351.8581859723 [K]
	Current Cation-Cation energy:                 0.0000000000 [K]
	Current Adsorbate-Cation energy:              0.0000000000 [K]



