LAMMPS (27 Nov 2018)
  using 7 OpenMP thread(s) per MPI task
# created by cif2lammps
units      metal
boundary   p p p
dimension  3
newton     on
atom_style full
# Read coordinates, charges and potentials
read_data  p1.data
  orthogonal box = (0 0 0) to (33.982 33.982 33.982)
  1 by 2 by 2 MPI processor grid
  reading atoms ...
  3909 atoms
  scanning bonds ...
  4 = max bonds/atom
  scanning angles ...
  6 = max angles/atom
  scanning dihedrals ...
  12 = max dihedrals/atom
  scanning impropers ...
  12 = max impropers/atom
  reading bonds ...
  4078 bonds
  reading angles ...
  7223 angles
  reading dihedrals ...
  10752 dihedrals
  reading impropers ...
  3648 impropers
  4 = max # of 1-2 neighbors
  12 = max # of 1-3 neighbors
  48 = max # of 1-4 neighbors
  12 = max # of special neighbors
include    forcefield.lmp
# Bond Coeffs
bond_style   harmonic
bond_coeff   1   12.5592232       1.42999995      # harmonic    # C8  O3
bond_coeff   2   7.66882277      0.944999993      # harmonic    # O3  H5
bond_coeff   3   23.4144001      0.899999976      # harmonic    # Zn  He
bond_coeff   4   23.4144001       1.47000003      # harmonic    # He  He
bond_coeff   5   13.9519463       1.10200000      # harmonic    # H3  C3
bond_coeff   6   17.4445953       1.37699997      # harmonic    # C2  C2
bond_coeff   7   16.0323601       1.08800006      # harmonic    # C2  H2
bond_coeff   8   12.5592232       1.38600004      # harmonic    # C2  N1
bond_coeff   9   14.6235933       1.35500002      # harmonic    # N1  C1
bond_coeff  10   23.4144001      0.500000000      # harmonic    # N1  Ne
bond_coeff  11   9.78331661       1.49800003      # harmonic    # C1  C3

# Angle Coeffs
angle_style   charmm
angle_coeff   1   2.3867509    108.5000000      0.0000000      0.0000000  # charmm      # C8  O3  H5
angle_coeff   2   2.3848000    109.5000000      0.0000000      0.0000000  # charmm      # He  Zn  He
angle_coeff   3   2.3848000     35.2500000      0.0000000      0.0000000  # charmm      # Zn  He  He
angle_coeff   4   2.3848000     60.0000000      0.0000000      0.0000000  # charmm      # He  He  He
angle_coeff   5   1.5175999    130.0339966      0.6408608      2.2360001  # charmm      # C2  C2  H2
angle_coeff   6   1.4560288    107.9950027      4.2948079      2.2349999  # charmm      # C2  C2  N1
angle_coeff   7   1.3693087    121.3170013      0.8858448      2.1600001  # charmm      # H2  C2  N1
angle_coeff   8   2.0088689    106.2519989      4.8411441      2.1930001  # charmm      # C2  N1  C1
angle_coeff   9   0.4925696    126.9499969      0.0000000      0.0000000  # charmm      # C2  N1  Ne
angle_coeff  10   0.6256848    126.8499985      0.0000000      0.0000000  # charmm      # C1  N1  Ne
angle_coeff  11   1.4022623    111.1689987      4.6555634      2.2360001  # charmm      # N1  C1  N1
angle_coeff  12   1.6940751    124.1969986      1.3272495      2.5220001  # charmm      # N1  C1  C3
angle_coeff  13   1.1785247    107.7409973      0.8095312      1.7790000  # charmm      # H3  C3  H3
angle_coeff  14   1.5744016    110.9629974      0.8307776      2.1530001  # charmm      # H3  C3  C1

# Dihedral Coeffs
dihedral_style   hybrid charmm
dihedral_coeff   1   none                                     # Zn  He  He  He
dihedral_coeff   2   none                                     # He  Zn  He  He
dihedral_coeff   3   none                                     # He  He  He  He
dihedral_coeff   4   charmm  0.0117072   2 180      0.00      # H3  C3  C1  N1
dihedral_coeff   5   charmm  0.2879104   2 180      0.00      # C2  C2  N1  C1
dihedral_coeff   6   charmm  0.0613978   2 180      0.00      # C2  C2  N1  Ne
dihedral_coeff   7   charmm  0.4669872   2 180      0.00      # C2  N1  C1  N1
dihedral_coeff   8   charmm  0.1578304   2 180      0.00      # C2  N1  C1  C3
dihedral_coeff   9   charmm  0.0147424   2 180      0.00      # H2  C2  C2  H2
dihedral_coeff  10   charmm  0.1539280   2 180      0.00      # H2  C2  C2  N1
dihedral_coeff  11   charmm  0.1582640   2 180      0.00      # H2  C2  N1  C1
dihedral_coeff  12   charmm  0.0457882   2 180      0.00      # H2  C2  N1  Ne
dihedral_coeff  13   charmm  0.6647088   2 180      0.00      # N1  C2  C2  N1
dihedral_coeff  14   charmm  0.0266230   2 180      0.00      # N1  C1  N1  Ne
dihedral_coeff  15   charmm  0.0098427   2 180      0.00      # C3  C1  N1  Ne

# Improper Coeffs
improper_style   hybrid cvff
improper_coeff   1   none                   # Zn  He  He  He
improper_coeff   2   none                   # He  Zn  He  He
improper_coeff   3   none                   # He  He  He  He
improper_coeff   4   none                   # C2  C2  H2  N1
improper_coeff   5   cvff 0.0024282  -1   2 # N1  C2  C1  Ne
improper_coeff   6   cvff 0.1517600  -1   2 # C1  N1  N1  C3
improper_coeff   7   none                   # C3  H3  H3  H3
improper_coeff   8   none                   # C3  H3  H3  C1

# Pair Coeffs
pair_style       hybrid/overlay lj/cut 13.0 coul/long 13.0 morse 13.0
kspace_style     ewald 1e-8
pair_modify      table 0
#
pair_coeff  *  *    coul/long
pair_coeff  4  9    morse    0.0401012653 2.0 2.735   # Zn N1
pair_coeff  2  4    lj/cut   0.0060146153 2.80777658  # O3 Zn
pair_coeff  5  *    lj/cut   0.0000001000 1.00000000  # He * (soft-sphere)
pair_coeff  12 *    lj/cut   0.0000001000 1.00000000  # Ne * (soft-sphere)
pair_coeff  3  *    lj/cut   0.0000010000 1.00000000  # H5 (methanol)
# N atom-types: 12
pair_coeff  1  1    lj/cut   0.0084440985 3.75000000  # C8 C8
pair_coeff  1  2    lj/cut   0.0082258738 3.38500000  # C8 O3
pair_coeff  1  4    lj/cut   0.0021399065 2.85500000  # C8 Zn
pair_coeff  1  6    lj/cut   0.0023983536 3.11050000  # C8 H3
pair_coeff  1  7    lj/cut   0.0056127711 3.57500005  # C8 C2
pair_coeff  1  8    lj/cut   0.0023442269 3.13000000  # C8 H2
pair_coeff  1  9    lj/cut   0.0078917805 3.50000000  # C8 N1
pair_coeff  1  10   lj/cut   0.0056127711 3.57500005  # C8 C1
pair_coeff  1  11   lj/cut   0.0056127711 3.57500005  # C8 C3
pair_coeff  2  2    lj/cut   0.0080132952 3.02000000  # O3 O3
pair_coeff  2  6    lj/cut   0.0023363646 2.74550000  # O3 H3
pair_coeff  2  7    lj/cut   0.0054677234 3.21000005  # O3 C2
pair_coeff  2  8    lj/cut   0.0022836374 2.76500000  # O3 H2
pair_coeff  2  9    lj/cut   0.0076878345 3.13500000  # O3 N1
pair_coeff  2  10   lj/cut   0.0054677234 3.21000005  # O3 C1
pair_coeff  2  11   lj/cut   0.0054677234 3.21000005  # O3 C3
pair_coeff  4  4    lj/cut   0.0005422176 1.96000000  # Zn Zn
pair_coeff  4  6    lj/cut   0.0006077005 2.21550000  # Zn H3
pair_coeff  4  7    lj/cut   0.0014222868 2.68000005  # Zn C2
pair_coeff  4  8    lj/cut   0.0005939696 2.23500000  # Zn H2
pair_coeff  4  10   lj/cut   0.0014222868 2.68000005  # Zn C1
pair_coeff  4  11   lj/cut   0.0014222868 2.68000005  # Zn C3
pair_coeff  6  6    lj/cut   0.0006811754 2.47100000  # H3 H3
pair_coeff  6  7    lj/cut   0.0015941455 2.93550005  # H3 C2
pair_coeff  6  8    lj/cut   0.0006658077 2.49050000  # H3 H2
pair_coeff  6  9    lj/cut   0.0022414281 2.86050000  # H3 N1
pair_coeff  6  10   lj/cut   0.0015941455 2.93550005  # H3 C1
pair_coeff  6  11   lj/cut   0.0015941455 2.93550005  # H3 C3
pair_coeff  7  7    lj/cut   0.0037307908 3.40000010  # C2 C2
pair_coeff  7  8    lj/cut   0.0015581720 2.95500005  # C2 H2
pair_coeff  7  9    lj/cut   0.0052456458 3.32500005  # C2 N1
pair_coeff  7  10   lj/cut   0.0037307908 3.40000010  # C2 C1
pair_coeff  7  11   lj/cut   0.0037307908 3.40000010  # C2 C3
pair_coeff  8  8    lj/cut   0.0006507687 2.51000000  # H2 H2
pair_coeff  8  9    lj/cut   0.0021908445 2.88000000  # H2 N1
pair_coeff  8  10   lj/cut   0.0015581399 2.95500005  # H2 C1
pair_coeff  8  11   lj/cut   0.0015581399 2.95500005  # H2 C3
pair_coeff  9  9    lj/cut   0.0073755948 3.25000000  # N1 N1
pair_coeff  9  10   lj/cut   0.0052456458 3.32500005  # N1 C1
pair_coeff  9  11   lj/cut   0.0052456458 3.32500005  # N1 C3
pair_coeff  10  10  lj/cut   0.0037307908 3.40000010  # C1 C1
pair_coeff  10  11  lj/cut   0.0037307908 3.40000010  # C1 C3
pair_coeff  11  11  lj/cut   0.0037307908 3.40000010  # C3 C3

# scaling 1-4 bonds
special_bonds   lj 0.0 0.0 0.5 coul 0.0 0.0 0.6874
  4 = max # of 1-2 neighbors
  12 = max # of 1-3 neighbors
  48 = max # of 1-4 neighbors
  12 = max # of special neighbors
# Setup neighbor style
neighbor 2.0 bin
neigh_modify once no every 1 delay 0 check yes
# Setup output for minimization:
thermo 1
thermo_style custom step time pe press pxx pyy pzz pxy pxz pyz cella cellb cellc cellalpha cellbeta cellgamma vol
thermo_modify norm no flush yes
# Groups:
ndx2group  index.ndx
Reading groups from index file index.ndx:
 Processing group 'C8'
 Processing group 'O3'
 Processing group 'H5'
 Processing group 'Zn'
 Processing group 'He'
 Processing group 'H3'
 Processing group 'C2'
 Processing group 'H2'
 Processing group 'N1'
 Processing group 'C1'
 Processing group 'C3'
 Processing group 'Ne'

thermo     1
minimize   1e-8 1e-8 1000 1000
Ewald initialization ...
  using polynomial approximation for long-range coulomb (../kspace.cpp:321)
  G vector (1/distance) = 0.292164
  estimated absolute RMS force accuracy = 1.44448e-07
  estimated relative force accuracy = 1.00313e-08
  KSpace vectors: actual max1d max3d = 4585 13 9841
                  kxmax kymax kzmax  = 13 13 13
Neighbor list info ...
  update every 1 steps, delay 0 steps, check yes
  max neighbors/atom: 2000, page size: 100000
  master list distance cutoff = 15
  ghost atom cutoff = 15
  binsize = 7.5, bins = 5 5 5
  3 neighbor lists, perpetual/occasional/extra = 3 0 0
  (1) pair lj/cut, perpetual, skip from (2)
      attributes: half, newton on
      pair build: skip
      stencil: none
      bin: none
  (2) pair coul/long, perpetual
      attributes: half, newton on
      pair build: half/bin/newton
      stencil: half/bin/3d/newton
      bin: standard
  (3) pair morse, perpetual, skip from (2)
      attributes: half, newton on
      pair build: skip
      stencil: none
      bin: none
WARNING: Inconsistent image flags (../domain.cpp:782)
Per MPI rank memory allocation (min/avg/max) = 54.8 | 54.8 | 54.8 Mbytes
Step Time PotEng Press Pxx Pyy Pzz Pxy Pxz Pyz Cella Cellb Cellc CellAlpha CellBeta CellGamma Volume 
       0            0   -365.88751    53539.156    56579.726    51944.916    52092.827   -1531.1317    -506.8239    2631.3474    33.981998    33.981998    33.981998           90           90           90    39241.603 
       1        0.001   -413.92557    42464.147    44450.283    41495.386    41446.772   -941.51758    24.091343    2115.5659    33.981998    33.981998    33.981998           90           90           90    39241.603 
       2        0.002   -445.36296    47281.904    48606.174    46601.626    46637.911   -899.01642    402.57508    1956.7259    33.981998    33.981998    33.981998           90           90           90    39241.603 
       3        0.003   -460.21353    24194.633    25194.676    23797.232    23591.992   -584.06685    604.96402    1766.2123    33.981998    33.981998    33.981998           90           90           90    39241.603 
       4        0.004   -479.98347    19248.581    19812.815    19183.501    18749.428   -330.96584    798.81173    1576.8313    33.981998    33.981998    33.981998           90           90           90    39241.603 
       5        0.005   -485.13915    30687.743    31188.606     30584.35    30290.273   -449.57887    705.97525    1603.4444    33.981998    33.981998    33.981998           90           90           90    39241.603 
       6        0.006   -498.82344    21460.937    21447.847    21585.438    21349.527   -270.30825    220.84638    1338.5571    33.981998    33.981998    33.981998           90           90           90    39241.603 
       7        0.007   -510.84619    19528.777    19370.986    20168.719    19046.627    723.36458    412.83173    734.78346    33.981998    33.981998    33.981998           90           90           90    39241.603 
       8        0.008   -524.46566    17515.446    17247.244    17687.564     17611.53   -551.62667     321.3401    976.64391    33.981998    33.981998    33.981998           90           90           90    39241.603 
       9        0.009   -529.21687    19489.393    19202.006    20123.619    19142.553     495.3325    871.14038    660.81625    33.981998    33.981998    33.981998           90           90           90    39241.603 
      10         0.01   -535.37114    17194.404    16760.009    17560.862    17262.341   -15.812682    853.44783    808.10693    33.981998    33.981998    33.981998           90           90           90    39241.603 
      11        0.011   -540.48563    20450.016    20059.099    20505.983    20784.967   -779.58701    357.49316    792.17818    33.981998    33.981998    33.981998           90           90           90    39241.603 
      12        0.012   -545.90624    15404.269    15157.432    15987.794    15067.582     66.24819    450.76995     259.4876    33.981998    33.981998    33.981998           90           90           90    39241.603 
      13        0.013    -551.5407    17007.891     16809.74    17645.239    16568.694    -271.1621    437.83499     424.2696    33.981998    33.981998    33.981998           90           90           90    39241.603 
      14        0.014   -555.16633    11881.237    11770.314    12235.821    11637.577   -727.31655    451.52259    599.33632    33.981998    33.981998    33.981998           90           90           90    39241.603 
      15        0.015   -558.29457    15889.306    15951.099    16353.321    15363.499   0.50031827    749.30105    177.91747    33.981998    33.981998    33.981998           90           90           90    39241.603 
      16        0.016   -561.64945    14000.678    14087.243    14274.369    13640.423   -318.65103    641.52489    106.63149    33.981998    33.981998    33.981998           90           90           90    39241.603 
      17        0.017   -567.19649    13676.656    13568.126    13915.897    13545.945   -916.37239    588.90464    438.52487    33.981998    33.981998    33.981998           90           90           90    39241.603 
      18        0.018   -569.93139    8797.2294    8681.2161    9480.0988    8230.3733   -135.61529    790.94039     170.4563    33.981998    33.981998    33.981998           90           90           90    39241.603 
      19        0.019   -572.43284    11376.857    11298.861    12021.828    10809.883   -275.22506    528.00266    41.850682    33.981998    33.981998    33.981998           90           90           90    39241.603 
      20         0.02   -575.83049      8638.36    8618.2316    8958.9481    8337.9004   -701.14397    403.50744    107.36214    33.981998    33.981998    33.981998           90           90           90    39241.603 
      21        0.021   -577.83993    12113.637      12119.3    12663.787    11557.826   -94.640741    738.86106   -59.877526    33.981998    33.981998    33.981998           90           90           90    39241.603 
      22        0.022   -580.82705    9401.5014    9452.8833    9908.4648    8843.1562   -5.0976298    907.77136   -82.277831    33.981998    33.981998    33.981998           90           90           90    39241.603 
      23        0.023   -583.43888    12187.598    12277.355    12220.593    12064.846    -571.5088    618.12547    140.63875    33.981998    33.981998    33.981998           90           90           90    39241.603 
      24        0.024   -585.98667    9184.6339    9196.1586    9432.5916    8925.1514    5.2625545    612.04042    96.462809    33.981998    33.981998    33.981998           90           90           90    39241.603 
      25        0.025    -587.9607    10571.085    10452.196    10942.232    10318.828    68.223858     604.5438    103.27174    33.981998    33.981998    33.981998           90           90           90    39241.603 
      26        0.026   -590.11991    8373.4847    8316.0266     8522.542    8281.8854   -391.58023    407.75498    157.41511    33.981998    33.981998    33.981998           90           90           90    39241.603 
      27        0.027    -592.1428    10635.659    10689.199    11022.385    10195.393   -98.048749    460.06141     73.27703    33.981998    33.981998    33.981998           90           90           90    39241.603 
      28        0.028   -594.00813    7104.0631    7309.5082    7443.1404    6559.5407   -96.205308    413.85506    102.45364    33.981998    33.981998    33.981998           90           90           90    39241.603 
      29        0.029   -595.56444     8719.519    8965.7634    8578.5388    8614.2547   -446.12725    266.94766    182.55497    33.981998    33.981998    33.981998           90           90           90    39241.603 
      30         0.03   -597.14904    8903.8042    9011.7831    8973.9977    8725.6319    4.3720821    452.68095    111.64266    33.981998    33.981998    33.981998           90           90           90    39241.603 
      31        0.031    -599.3193    9734.1498    9738.1431    9987.7124    9476.5938    -29.70843    271.97125    163.20283    33.981998    33.981998    33.981998           90           90           90    39241.603 
      32        0.032   -600.79668    9079.4972    9189.2073    9111.0295    8938.2548   -413.42629    106.30741    340.12526    33.981998    33.981998    33.981998           90           90           90    39241.603 
      33        0.033   -602.43589    9639.5817    9812.4589    9938.1954    9168.0908   -178.40082    306.32068    292.55147    33.981998    33.981998    33.981998           90           90           90    39241.603 
      34        0.034   -604.40832    9115.0241    9301.3208     9477.838    8565.9136    -77.47247    373.75088    101.21919    33.981998    33.981998    33.981998           90           90           90    39241.603 
      35        0.035   -605.48376    8289.4184    8496.5097     8248.281    8123.4645   -436.62422    142.58638    96.962856    33.981998    33.981998    33.981998           90           90           90    39241.603 
      36        0.036   -606.91402    7661.6733    7775.9553    7866.9724    7342.0921   -242.03929    237.95418    25.517451    33.981998    33.981998    33.981998           90           90           90    39241.603 
      37        0.037   -608.52686    6959.2484    7076.3436    7274.2039    6527.1977    -192.5172    451.11522    121.79561    33.981998    33.981998    33.981998           90           90           90    39241.603 
      38        0.038   -609.39038     7611.252     7813.627      7652.86     7367.269    -324.6165    398.05836    130.60835    33.981998    33.981998    33.981998           90           90           90    39241.603 
      39        0.039   -611.05309    6373.2782    6621.1208    6366.7496    6131.9643   -170.73139     353.9846   -141.20041    33.981998    33.981998    33.981998           90           90           90    39241.603 
      40         0.04    -612.0337    7172.5257    7351.1125    7320.1167    6846.3479   -74.278619    414.50525   -103.38307    33.981998    33.981998    33.981998           90           90           90    39241.603 
      41        0.041   -613.14608    6919.7454    7136.7796    6854.3155     6768.141   -204.12142    336.66289    48.363274    33.981998    33.981998    33.981998           90           90           90    39241.603 
      42        0.042   -614.29584    7384.6515     7639.495    7513.3541    7001.1055   -150.09486    352.35992    -59.35475    33.981998    33.981998    33.981998           90           90           90    39241.603 
      43        0.043   -615.39028    7084.4782    7380.0005    7233.1549    6640.2793    -148.1103    387.87808   -44.880221    33.981998    33.981998    33.981998           90           90           90    39241.603 
      44        0.044   -616.20054    7938.4931    8227.1091    7860.0188    7728.3515   -161.04114    428.65065    16.842608    33.981998    33.981998    33.981998           90           90           90    39241.603 
      45        0.045   -617.37889    7408.0662     7612.835    7281.1963    7330.1671   -122.48132    584.45114    8.7108497    33.981998    33.981998    33.981998           90           90           90    39241.603 
      46        0.046   -618.29322    6954.6892    7285.8751    6891.3866    6686.8059   -233.72943     379.8737    2.6575642    33.981998    33.981998    33.981998           90           90           90    39241.603 
      47        0.047    -619.1983    6200.4882    6634.9067    6019.6788     5946.879   -138.24445    226.36856    -38.41175    33.981998    33.981998    33.981998           90           90           90    39241.603 
      48        0.048   -620.20987    6171.6716    6563.3311    6015.5571    5936.1268   -7.8476418    277.85576    16.615685    33.981998    33.981998    33.981998           90           90           90    39241.603 
      49        0.049    -620.9432    5925.3708    6232.9323    5775.4109    5767.7694   -57.043226      302.459    24.710383    33.981998    33.981998    33.981998           90           90           90    39241.603 
      50         0.05   -621.76785    6258.4784     6517.726     6000.166    6257.5431   -58.770058    258.98728   -99.072581    33.981998    33.981998    33.981998           90           90           90    39241.603 
      51        0.051   -622.67678    6791.2212    7087.7752    6622.1923    6663.6962    -129.0939    259.88109   -74.385309    33.981998    33.981998    33.981998           90           90           90    39241.603 
      52        0.052   -623.45318    7148.2062    7456.3373     6978.716    7009.5652   -190.87888    211.14638   -24.896044    33.981998    33.981998    33.981998           90           90           90    39241.603 
      53        0.053   -624.16839    6943.1843     7220.338    6644.6739    6964.5409   -88.346333    205.01581   -26.432355    33.981998    33.981998    33.981998           90           90           90    39241.603 
      54        0.054   -624.89828    6729.3749    7010.8404     6380.819    6796.4653   -78.813294    192.84543   -24.400646    33.981998    33.981998    33.981998           90           90           90    39241.603 
      55        0.055   -625.85096    6524.5568    6890.5751    6310.2575    6372.8377   -274.01386    90.303015    30.153212    33.981998    33.981998    33.981998           90           90           90    39241.603 
      56        0.056   -626.41095    6447.8143    6798.4472    6262.1048    6282.8908   -231.65665    119.07115    45.049757    33.981998    33.981998    33.981998           90           90           90    39241.603 
      57        0.057   -627.34257     6130.012     6372.519    5969.3144    6048.2026   -270.39859    224.76885    -56.55905    33.981998    33.981998    33.981998           90           90           90    39241.603 
      58        0.058   -627.99382     5815.303    6073.8949    5615.4686    5756.5456   -349.83045    243.28592   -105.04156    33.981998    33.981998    33.981998           90           90           90    39241.603 
      59        0.059   -628.56613    5719.2133    6079.8452    5461.6358     5616.159   -309.13004    231.23858   -40.387357    33.981998    33.981998    33.981998           90           90           90    39241.603 
      60         0.06   -629.23334    5885.9778    6361.3448    5672.6629    5623.9256   -319.91429    190.73179    26.561508    33.981998    33.981998    33.981998           90           90           90    39241.603 
      61        0.061   -629.97454    6075.7305    6515.2624    5877.8568    5834.0722   -377.10805    167.15623   -85.956494    33.981998    33.981998    33.981998           90           90           90    39241.603 
      62        0.062   -630.53032    6104.9873    6477.9874    5862.4958    5974.4789   -347.24799    204.75176   -60.422242    33.981998    33.981998    33.981998           90           90           90    39241.603 
      63        0.063   -631.06017    6160.2795    6514.4113    5862.9059    6103.5214   -278.66462    258.80954    61.213005    33.981998    33.981998    33.981998           90           90           90    39241.603 
      64        0.064   -631.66083    5955.4401    6348.8316    5626.4251    5891.0636   -290.65467    272.44862    43.548035    33.981998    33.981998    33.981998           90           90           90    39241.603 
      65        0.065   -632.19258    5669.0386    6092.8956     5395.135     5519.085    -293.8443    256.27354    59.764995    33.981998    33.981998    33.981998           90           90           90    39241.603 
      66        0.066   -632.84318    5652.6937    6010.8046    5467.5317    5479.7449   -291.60124     150.6076    150.55035    33.981998    33.981998    33.981998           90           90           90    39241.603 
      67        0.067   -633.36238    5559.3857    5881.2056    5354.5584    5442.3931   -303.99091    146.19748    173.07385    33.981998    33.981998    33.981998           90           90           90    39241.603 
      68        0.068   -634.00131    5385.5713     5728.612    5118.9648    5309.1371   -308.64357    255.83447    134.13079    33.981998    33.981998    33.981998           90           90           90    39241.603 
      69        0.069   -634.63937     5152.498    5561.7121    4866.4322    5029.3499   -308.44587    218.42051    68.736563    33.981998    33.981998    33.981998           90           90           90    39241.603 
      70         0.07   -635.07323    5491.0665    5917.9786    5152.1153    5403.1056    -265.2727    146.83158    95.591399    33.981998    33.981998    33.981998           90           90           90    39241.603 
      71        0.071   -635.68858    5666.3962    6028.0952    5429.3788    5541.7146   -203.26336    137.78687    68.355607    33.981998    33.981998    33.981998           90           90           90    39241.603 
      72        0.072   -636.35404    5651.8123    5883.0246    5542.1986    5530.2137   -165.87894    174.85983    15.246723    33.981998    33.981998    33.981998           90           90           90    39241.603 
      73        0.073   -636.76605    5373.8935    5585.9206    5166.4196    5369.3404   -135.60308    167.14757    48.872811    33.981998    33.981998    33.981998           90           90           90    39241.603 
      74        0.074   -637.56132    5367.2994    5571.8577    5131.5827    5398.4578   -99.783669    199.45944   -47.879546    33.981998    33.981998    33.981998           90           90           90    39241.603 
      75        0.075    -638.0043    5127.2227    5282.6174     4979.154    5119.8967   -81.015575    205.20123   -90.722188    33.981998    33.981998    33.981998           90           90           90    39241.603 
      76        0.076   -638.44331    5205.9594    5340.7754    5045.6973    5231.4056   -50.896517    173.96429   -38.987749    33.981998    33.981998    33.981998           90           90           90    39241.603 
      77        0.077   -639.04041    5084.2511     5187.477    4982.6941    5082.5822   -4.2353849    174.65186   -91.918877    33.981998    33.981998    33.981998           90           90           90    39241.603 
      78        0.078   -639.61706    5130.0823    5151.4793    5101.0824    5137.6852    46.038289    213.69902   -74.415772    33.981998    33.981998    33.981998           90           90           90    39241.603 
      79        0.079   -640.01014    5111.0303    5131.0153    5004.8604    5197.2152     69.87385    240.06081    57.059665    33.981998    33.981998    33.981998           90           90           90    39241.603 
      80         0.08   -640.58166    5179.9385    5162.4821    5094.4573     5282.876    50.145068    314.93393    17.559983    33.981998    33.981998    33.981998           90           90           90    39241.603 
      81        0.081   -641.09582    5235.4967    5180.5235    5234.6391    5291.3274    1.9643953    306.28036   -144.05271    33.981998    33.981998    33.981998           90           90           90    39241.603 
      82        0.082   -641.55455    4978.2434     5042.184    4831.5122    5061.0341    2.5083457    236.84114   -64.431987    33.981998    33.981998    33.981998           90           90           90    39241.603 
      83        0.083   -642.17835    4847.9403    4911.6894     4772.181    4859.9506     84.11725    300.35397    -154.9121    33.981998    33.981998    33.981998           90           90           90    39241.603 
      84        0.084   -642.61994    4461.0667    4443.8564    4477.2896     4462.054     88.99833    391.98261   -197.05598    33.981998    33.981998    33.981998           90           90           90    39241.603 
      85        0.085    -643.1129    4665.0146    4684.3874    4567.6779    4742.9785    67.220977     399.2944   -73.243983    33.981998    33.981998    33.981998           90           90           90    39241.603 
      86        0.086   -643.64557     4306.903    4333.4197    4184.5658    4402.7235    111.10435    357.69678   -89.067701    33.981998    33.981998    33.981998           90           90           90    39241.603 
      87        0.087   -644.06528    4780.0435    4759.6187    4705.2126    4875.2993    135.53198    376.28219   -109.36329    33.981998    33.981998    33.981998           90           90           90    39241.603 
      88        0.088   -644.61448    4421.7877    4445.2266    4349.3227     4470.814    122.07284    372.58527   -134.67159    33.981998    33.981998    33.981998           90           90           90    39241.603 
      89        0.089   -645.05501    4784.0719    4811.1787     4757.555    4783.4821    94.329122    340.88344    -147.9504    33.981998    33.981998    33.981998           90           90           90    39241.603 
      90         0.09   -645.55354    4371.5157    4358.8279    4327.2707    4428.4485    48.714976    323.64516    4.0708109    33.981998    33.981998    33.981998           90           90           90    39241.603 
      91        0.091   -645.95287    4880.3978    4945.4883    4758.0594    4937.6456    28.116911    283.15941   -12.431965    33.981998    33.981998    33.981998           90           90           90    39241.603 
      92        0.092   -646.49505    4521.9707    4612.6511    4414.2935    4538.9676    53.233597    254.82003   -92.007605    33.981998    33.981998    33.981998           90           90           90    39241.603 
      93        0.093   -646.91426    4933.2406    4975.0719    4859.2986    4965.3514    20.129982    255.34293    5.5782782    33.981998    33.981998    33.981998           90           90           90    39241.603 
      94        0.094    -647.3748    4387.2108    4504.7677    4301.0883    4355.7765   -36.883805    243.29928   -29.633361    33.981998    33.981998    33.981998           90           90           90    39241.603 
      95        0.095   -647.79121    4626.7546    4738.4192    4568.0331    4573.8114   -42.162148    241.13035   -36.146843    33.981998    33.981998    33.981998           90           90           90    39241.603 
      96        0.096   -648.22042     4141.881    4231.8348    4088.1296    4105.6787   -49.858705    219.09235    8.3511629    33.981998    33.981998    33.981998           90           90           90    39241.603 
      97        0.097   -648.65053      4561.54     4673.608    4496.1316    4514.8803    -21.02665    190.19942   -69.872289    33.981998    33.981998    33.981998           90           90           90    39241.603 
      98        0.098   -649.11129     4249.296    4302.9134    4236.1028    4208.8718    33.360432    232.00389   -34.176214    33.981998    33.981998    33.981998           90           90           90    39241.603 
      99        0.099   -649.49058    4580.5081    4663.3243    4545.2308    4532.9691   -36.739016    234.84117    44.799323    33.981998    33.981998    33.981998           90           90           90    39241.603 
     100          0.1   -649.88786    4337.0522    4464.5878    4292.3982    4254.1704   -70.997665    239.83737   -32.672049    33.981998    33.981998    33.981998           90           90           90    39241.603 
     101        0.101   -650.32428    4744.5958    4831.9755    4737.8875    4663.9243   -27.738106    246.01312    1.7186193    33.981998    33.981998    33.981998           90           90           90    39241.603 
     102        0.102   -650.70293    4488.3211    4581.2656    4472.8924    4410.8054    -81.33429    236.96993    105.64221    33.981998    33.981998    33.981998           90           90           90    39241.603 
     103        0.103   -651.05336    4430.8423    4456.5241    4488.3552    4347.6476   -57.465383    299.15311  0.051655308    33.981998    33.981998    33.981998           90           90           90    39241.603 
     104        0.104   -651.42381    4054.7577    4054.8978    4148.4616    3960.9136   -33.293102    325.96513   -28.012838    33.981998    33.981998    33.981998           90           90           90    39241.603 
     105        0.105   -651.78079    4058.6891    4158.6042    4074.1487    3943.3143   -87.119051    276.02803    40.444577    33.981998    33.981998    33.981998           90           90           90    39241.603 
     106        0.106   -652.16822    3878.0455    3998.9361    3900.3546    3734.8459   -24.064954    317.60177   -46.008941    33.981998    33.981998    33.981998           90           90           90    39241.603 
     107        0.107    -652.5253    3925.1484    3997.7718    3999.0567    3778.6168    16.940799    419.41744   -8.3135655    33.981998    33.981998    33.981998           90           90           90    39241.603 
     108        0.108   -652.80608    3959.2469    4020.9433     4031.184    3825.6134    18.314566    442.88482    7.8852333    33.981998    33.981998    33.981998           90           90           90    39241.603 
     109        0.109   -653.33691    4117.9931    4169.2211    4171.9708    4012.7875     65.90426     399.5719   -64.867889    33.981998    33.981998    33.981998           90           90           90    39241.603 
     110         0.11   -653.61679    4191.5764    4269.7608     4230.284    4074.6843    40.817522     428.5054   -1.7789531    33.981998    33.981998    33.981998           90           90           90    39241.603 
     111        0.111   -653.97099    4095.7036     4249.897     4083.253     3953.961     37.34599    469.95783   -82.264046    33.981998    33.981998    33.981998           90           90           90    39241.603 
     112        0.112   -654.39567     4113.262     4292.782    4110.2717    3936.7323    91.401758    421.98094   -178.16576    33.981998    33.981998    33.981998           90           90           90    39241.603 
     113        0.113   -654.67692    3882.9418    4042.6128    3916.4305     3689.782    90.725468    399.79849   -27.032361    33.981998    33.981998    33.981998           90           90           90    39241.603 
     114        0.114   -655.02462    3898.8825    4062.8174    3915.8349    3717.9953    140.66306    436.85272   -36.618293    33.981998    33.981998    33.981998           90           90           90    39241.603 
     115        0.115   -655.39732    3620.6424    3807.9508    3582.0591    3471.9174    127.16608    443.72203   -72.532621    33.981998    33.981998    33.981998           90           90           90    39241.603 
     116        0.116   -655.69155    3775.6287    3972.5818    3714.5934    3639.7109    27.748984    437.87428    4.9943111    33.981998    33.981998    33.981998           90           90           90    39241.603 
     117        0.117   -655.97995    3617.9773    3830.6166    3535.2787    3488.0366     10.59195    472.13398   -43.912314    33.981998    33.981998    33.981998           90           90           90    39241.603 
     118        0.118   -656.39029    3997.1941    4205.0961     3964.565    3821.9213    38.868705    510.84067   -58.583587    33.981998    33.981998    33.981998           90           90           90    39241.603 
     119        0.119   -656.62408    3886.4729    4071.6576    3887.5084    3700.2527    6.4095824     509.9527   -7.8167815    33.981998    33.981998    33.981998           90           90           90    39241.603 
     120         0.12   -656.95592    4229.1064    4392.2663    4228.8101    4066.2429   -11.673344    475.78348     67.43338    33.981998    33.981998    33.981998           90           90           90    39241.603 
     121        0.121   -657.27392    3865.7673    4043.9607    3837.3682    3715.9729    5.8743086    476.30479    141.00849    33.981998    33.981998    33.981998           90           90           90    39241.603 
     122        0.122   -657.54141    3923.0655    4112.9674    3877.9776    3778.2515   -35.416188    517.18156     89.76742    33.981998    33.981998    33.981998           90           90           90    39241.603 
     123        0.123    -657.9071    3541.1117    3729.4489    3470.5801    3423.3061   -98.342514    532.73792    65.229263    33.981998    33.981998    33.981998           90           90           90    39241.603 
     124        0.124   -658.15423    3680.8441    3850.1849    3615.9867    3576.3606   -110.01959    451.70315    139.73846    33.981998    33.981998    33.981998           90           90           90    39241.603 
     125        0.125    -658.4792    3300.5685    3452.3375    3226.0377    3223.3304   -124.38675    392.40201      105.887    33.981998    33.981998    33.981998           90           90           90    39241.603 
     126        0.126   -658.77074    3364.8568    3503.0024    3271.3975    3320.1704   -90.167486    421.61447     107.7563    33.981998    33.981998    33.981998           90           90           90    39241.603 
     127        0.127   -659.03671    3240.7034     3359.107     3143.153    3219.8502   -72.526135    434.01708    154.39894    33.981998    33.981998    33.981998           90           90           90    39241.603 
     128        0.128   -659.33669    3591.0578    3733.4427    3452.3198     3587.411   -97.126838    402.94802    94.200468    33.981998    33.981998    33.981998           90           90           90    39241.603 
     129        0.129   -659.65728    3527.3911    3732.1231    3329.3912     3520.659   -91.173594    363.61966     104.2208    33.981998    33.981998    33.981998           90           90           90    39241.603 
     130         0.13   -659.87121    3728.7784    3905.3663    3560.6637    3720.3053   -79.248205    347.39511    135.71268    33.981998    33.981998    33.981998           90           90           90    39241.603 
     131        0.131   -660.22608    3716.0094    3841.5772    3579.1132    3727.3378   -78.414635    342.64271    130.74858    33.981998    33.981998    33.981998           90           90           90    39241.603 
     132        0.132   -660.47517    3760.4503    3884.7625    3594.5448    3802.0435   -97.373541    324.71309    156.74162    33.981998    33.981998    33.981998           90           90           90    39241.603 
     133        0.133   -660.74113    3533.2847    3617.4288    3392.4845     3589.941   -119.58768    312.95852     146.6823    33.981998    33.981998    33.981998           90           90           90    39241.603 
     134        0.134   -661.03143    3444.9718    3538.6588    3289.3369    3506.9196   -120.10679    273.24172    114.06439    33.981998    33.981998    33.981998           90           90           90    39241.603 
     135        0.135   -661.30579    3251.5198    3383.1051    3084.3863    3287.0681   -108.73107    229.45646    107.84983    33.981998    33.981998    33.981998           90           90           90    39241.603 
     136        0.136   -661.53315    3238.9319    3359.5253    3119.4241    3237.8463   -126.39613    218.73979    73.709121    33.981998    33.981998    33.981998           90           90           90    39241.603 
     137        0.137    -661.8849      3181.03    3355.7854    3043.5745    3143.7303   -110.24676    193.62728    49.090249    33.981998    33.981998    33.981998           90           90           90    39241.603 
     138        0.138   -662.07693    3331.5173    3504.3754    3184.2175    3305.9591   -89.189998    190.54578     42.09733    33.981998    33.981998    33.981998           90           90           90    39241.603 
     139        0.139   -662.36427    3402.8357    3505.2779    3276.2038    3427.0254    -115.4744    186.82246   -3.2937064    33.981998    33.981998    33.981998           90           90           90    39241.603 
     140         0.14   -662.61359     3445.038    3539.4887    3294.6611    3500.9641   -143.06244    152.16334    6.6833556    33.981998    33.981998    33.981998           90           90           90    39241.603 
     141        0.141   -662.81667    3350.9008    3440.9595    3233.0918    3378.6512   -121.97008    170.44854   -4.5097633    33.981998    33.981998    33.981998           90           90           90    39241.603 
     142        0.142   -663.09062    3490.4475    3606.6751    3384.2347    3480.4326   -115.06492    254.07453   -28.699661    33.981998    33.981998    33.981998           90           90           90    39241.603 
     143        0.143   -663.32411    3308.2651    3454.6004    3163.2216    3306.9733   -120.11604    273.31903   0.37908855    33.981998    33.981998    33.981998           90           90           90    39241.603 
     144        0.144   -663.55808    3314.0002    3407.7754    3211.1661    3323.0592   -119.11441    286.32269    19.270012    33.981998    33.981998    33.981998           90           90           90    39241.603 
     145        0.145   -663.77549    3066.1751     3150.044    2950.6413    3097.8401   -150.70511    302.80662    43.806507    33.981998    33.981998    33.981998           90           90           90    39241.603 
     146        0.146   -664.01318    3215.1362    3324.1455    3076.0363    3245.2267   -146.32118    346.34092    48.326814    33.981998    33.981998    33.981998           90           90           90    39241.603 
     147        0.147   -664.21013    2974.7591    3052.2317    2895.2113    2976.8342   -128.34947    366.81607    19.081199    33.981998    33.981998    33.981998           90           90           90    39241.603 
     148        0.148   -664.42527    3153.5363    3262.7633    3056.7314    3141.1142   -167.43096    349.46836    26.158811    33.981998    33.981998    33.981998           90           90           90    39241.603 
     149        0.149   -664.62238    2986.6253    3119.3045    2870.9761    2969.5952   -162.42465    362.04664    24.796318    33.981998    33.981998    33.981998           90           90           90    39241.603 
     150         0.15   -664.84823    3368.3794    3477.9339     3273.846    3353.3583    -126.0513    405.88545     17.87871    33.981998    33.981998    33.981998           90           90           90    39241.603 
     151        0.151   -665.06189    3089.9492    3225.0623     2941.471    3103.3142   -116.63317    390.92432     56.05662    33.981998    33.981998    33.981998           90           90           90    39241.603 
     152        0.152   -665.23409    3317.1938    3462.7995    3168.6252    3320.1568   -102.21656    382.31822    64.783308    33.981998    33.981998    33.981998           90           90           90    39241.603 
     153        0.153   -665.47937    3003.9403    3159.1238    2866.7546    2985.9424   -113.62102    398.44447    83.345509    33.981998    33.981998    33.981998           90           90           90    39241.603 
     154        0.154   -665.64526    3223.0789    3397.2902    3070.8814     3201.065   -133.19875     421.0435     90.71749    33.981998    33.981998    33.981998           90           90           90    39241.603 
     155        0.155   -665.82663    2928.4302    3066.7857    2835.0926    2883.4124   -96.090402    423.54283     65.41339    33.981998    33.981998    33.981998           90           90           90    39241.603 
     156        0.156   -666.04813    3076.2564    3224.3505     2971.485    3032.9337    -101.6769    393.95549    99.312459    33.981998    33.981998    33.981998           90           90           90    39241.603 
     157        0.157   -666.20276     2858.811    3050.4008    2682.1569    2843.8752   -134.23443    389.31189    135.51871    33.981998    33.981998    33.981998           90           90           90    39241.603 
     158        0.158   -666.39426    3074.3476    3219.3668     2939.247     3064.429   -127.17549    405.86755    113.74859    33.981998    33.981998    33.981998           90           90           90    39241.603 
     159        0.159   -666.58808    2993.6501    3103.6343    2900.5376    2976.7782   -136.96441    387.91509    110.98513    33.981998    33.981998    33.981998           90           90           90    39241.603 
     160         0.16   -666.72947     3196.432    3347.3918    3097.1455    3144.7586   -130.95039    376.01177    107.93997    33.981998    33.981998    33.981998           90           90           90    39241.603 
     161        0.161   -666.92039     3094.741    3281.9335    3016.1449    2986.1447   -81.106616    362.37664    119.26217    33.981998    33.981998    33.981998           90           90           90    39241.603 
     162        0.162   -667.08805    3113.9205    3292.6842    3028.1083    3020.9692   -110.88868    334.22592    180.32344    33.981998    33.981998    33.981998           90           90           90    39241.603 
     163        0.163   -667.24463     2910.381    3054.9426    2838.5798    2837.6205   -119.79914    329.11697     171.2633    33.981998    33.981998    33.981998           90           90           90    39241.603 
     164        0.164   -667.40751    2899.2848    3016.7188    2842.6454    2838.4903   -100.57184    335.57842     147.2303    33.981998    33.981998    33.981998           90           90           90    39241.603 
     165        0.165   -667.58786    2820.9158    2969.2284    2732.4436    2761.0756   -110.41947    316.03534    171.29489    33.981998    33.981998    33.981998           90           90           90    39241.603 
     166        0.166   -667.75023    2844.4161    2971.6616    2800.7379    2760.8487   -76.189008    340.19723    130.95799    33.981998    33.981998    33.981998           90           90           90    39241.603 
     167        0.167   -667.91034    2806.4217    2910.0883    2787.6166    2721.5601    -35.83109    372.75573    126.66856    33.981998    33.981998    33.981998           90           90           90    39241.603 
     168        0.168   -668.07735     2904.774    3056.1709    2824.6993    2833.4519   -53.221208    356.00774    162.88515    33.981998    33.981998    33.981998           90           90           90    39241.603 
     169        0.169   -668.22663    2938.1175    3085.2247    2856.2588    2872.8689   -33.855052    347.65463    130.61086    33.981998    33.981998    33.981998           90           90           90    39241.603 
     170         0.17   -668.40203    2928.3782    3020.3032    2845.9525     2918.879   -42.469797    382.82634    119.43267    33.981998    33.981998    33.981998           90           90           90    39241.603 
     171        0.171    -668.5282    2925.3439    3009.4611    2824.9316    2941.6389   -85.110423    379.40446    135.74849    33.981998    33.981998    33.981998           90           90           90    39241.603 
     172        0.172    -668.7301    2953.8244    3012.5456     2882.331    2966.5967   -72.108958    363.55286    133.63968    33.981998    33.981998    33.981998           90           90           90    39241.603 
     173        0.173    -668.8643    2943.9752    2995.1558    2872.9145    2963.8554   -38.971989    371.35199    143.98361    33.981998    33.981998    33.981998           90           90           90    39241.603 
     174        0.174   -669.02497    2896.3624    2941.6907    2830.0426     2917.354   -57.983148      368.169    134.89074    33.981998    33.981998    33.981998           90           90           90    39241.603 
     175        0.175   -669.17321    2866.3149     2886.699    2822.5729    2889.6729   -69.287836    333.42769    149.47449    33.981998    33.981998    33.981998           90           90           90    39241.603 
     176        0.176   -669.31947    2866.4576    2896.6158    2806.4989    2896.2582   -86.898799    341.17034    186.44079    33.981998    33.981998    33.981998           90           90           90    39241.603 
     177        0.177   -669.44892    2866.3453    2914.9496    2815.4575    2868.6287   -103.52501    344.20095    158.64759    33.981998    33.981998    33.981998           90           90           90    39241.603 
     178        0.178   -669.60228    2862.2291    2913.4868    2842.6011    2830.5994   -115.03416    309.20368    165.10691    33.981998    33.981998    33.981998           90           90           90    39241.603 
     179        0.179   -669.72401    2886.8422    2949.3052     2860.247    2850.9745   -144.53988    290.81297    187.20708    33.981998    33.981998    33.981998           90           90           90    39241.603 
     180         0.18   -669.87439     2908.364    2978.9779    2882.0595    2864.0545   -168.03182    285.19226     150.9684    33.981998    33.981998    33.981998           90           90           90    39241.603 
     181        0.181   -670.01349    2882.1284    2953.2424    2836.1631    2856.9798   -165.53636    267.79636    169.49445    33.981998    33.981998    33.981998           90           90           90    39241.603 
     182        0.182   -670.13945    2833.9044    2918.1028    2777.4842    2806.1263   -169.87014    286.88642    174.89514    33.981998    33.981998    33.981998           90           90           90    39241.603 
     183        0.183   -670.27114    2786.7076    2874.4388    2767.5124    2718.1715   -141.65332    301.55943    127.95661    33.981998    33.981998    33.981998           90           90           90    39241.603 
     184        0.184    -670.4184    2740.3653    2849.5082    2723.1547    2648.4329   -150.39725    266.53665    156.90395    33.981998    33.981998    33.981998           90           90           90    39241.603 
     185        0.185   -670.53328    2753.1413    2885.7973     2714.786    2658.8405   -182.47503    262.23768    165.06199    33.981998    33.981998    33.981998           90           90           90    39241.603 
     186        0.186   -670.67344    2735.0793    2864.1265    2708.9593    2632.1521   -168.41746    280.70662    147.10753    33.981998    33.981998    33.981998           90           90           90    39241.603 
     187        0.187   -670.81746    2755.7617    2893.2908    2739.6127    2634.3816   -184.30611    299.67962    157.26506    33.981998    33.981998    33.981998           90           90           90    39241.603 
     188        0.188   -670.93286    2705.4447    2866.4373      2693.75    2556.1467   -225.67691    314.69426    127.38261    33.981998    33.981998    33.981998           90           90           90    39241.603 
     189        0.189   -671.07199    2782.0294    2940.3139    2790.8841    2614.8903   -206.35311    301.77251    111.93805    33.981998    33.981998    33.981998           90           90           90    39241.603 
     190         0.19   -671.18917    2753.0853     2914.242     2762.971     2582.043   -202.93605    283.27532    122.92397    33.981998    33.981998    33.981998           90           90           90    39241.603 
     191        0.191   -671.31767    2872.6462     3061.112     2878.396    2678.4307   -213.23155    290.33001     80.06533    33.981998    33.981998    33.981998           90           90           90    39241.603 
     192        0.192   -671.42998     2773.413    2974.8462     2776.322    2569.0709   -187.92084    305.00326    67.594178    33.981998    33.981998    33.981998           90           90           90    39241.603 
     193        0.193   -671.54926    2831.0227    3029.5866    2817.8682    2645.6133   -204.03283    316.19596    80.632225    33.981998    33.981998    33.981998           90           90           90    39241.603 
     194        0.194   -671.67501    2683.3067    2857.4447    2674.6828    2517.7927   -223.19099    300.73814    45.814203    33.981998    33.981998    33.981998           90           90           90    39241.603 
     195        0.195   -671.78636    2808.1994    2953.9406    2813.2721    2657.3856   -188.50455    274.21847    24.668251    33.981998    33.981998    33.981998           90           90           90    39241.603 
     196        0.196   -671.91733    2711.7245    2852.9574    2709.9163    2572.2997   -194.09497    275.45576   -4.5123748    33.981998    33.981998    33.981998           90           90           90    39241.603 
     197        0.197   -672.03064     2831.946    2964.7096    2833.8771    2697.2513   -183.09197    285.89366    -37.23919    33.981998    33.981998    33.981998           90           90           90    39241.603 
     198        0.198   -672.15307    2750.8964    2862.5894    2744.1135    2645.9864   -152.10479    294.88527   -30.747635    33.981998    33.981998    33.981998           90           90           90    39241.603 
     199        0.199   -672.25763    2894.3299    3013.3082    2850.7798    2818.9018   -177.34405    303.32773   -34.813856    33.981998    33.981998    33.981998           90           90           90    39241.603 
     200          0.2   -672.38737    2847.7684    2959.3011    2777.6132    2806.3909   -194.10366    254.22771   -48.522051    33.981998    33.981998    33.981998           90           90           90    39241.603 
     201        0.201   -672.48459    2916.8598    2998.0911    2864.8891    2887.5993   -173.03363    238.71468   -48.294713    33.981998    33.981998    33.981998           90           90           90    39241.603 
     202        0.202   -672.59967    2818.6557    2888.6464    2793.6093    2773.7114   -184.44498     253.9142   -74.247507    33.981998    33.981998    33.981998           90           90           90    39241.603 
     203        0.203   -672.71769    2813.1658    2895.7897    2783.2407     2760.467   -188.03782    229.36248   -63.666009    33.981998    33.981998    33.981998           90           90           90    39241.603 
     204        0.204   -672.81089    2751.2472    2843.1251    2683.1305    2727.4859   -184.18833    211.07918   -25.083825    33.981998    33.981998    33.981998           90           90           90    39241.603 
     205        0.205   -672.92044    2731.6567    2821.7517    2644.0613    2729.1569   -184.66026    210.19445   -34.114503    33.981998    33.981998    33.981998           90           90           90    39241.603 
     206        0.206   -673.03226    2741.6332    2807.5934    2693.3376    2723.9687   -179.16716    193.64427    -54.09371    33.981998    33.981998    33.981998           90           90           90    39241.603 
     207        0.207   -673.12878    2761.6367    2834.6889     2725.635    2724.5862   -176.09132    208.75026   -48.753964    33.981998    33.981998    33.981998           90           90           90    39241.603 
     208        0.208   -673.23298    2853.3407    2944.7412    2816.4682    2798.8128   -156.81073     217.8439   -38.365855    33.981998    33.981998    33.981998           90           90           90    39241.603 
     209        0.209   -673.34299    2833.4231    2904.2016    2813.6327    2782.4349   -154.96538    209.79738   -16.221594    33.981998    33.981998    33.981998           90           90           90    39241.603 
     210         0.21   -673.43937    2880.2334    2947.3848    2859.7184    2833.5969   -191.50011    229.61312   -3.7698338    33.981998    33.981998    33.981998           90           90           90    39241.603 
     211        0.211   -673.54284    2791.1816    2876.4678    2776.0585    2721.0184   -195.98037    233.64045   -18.973042    33.981998    33.981998    33.981998           90           90           90    39241.603 
     212        0.212   -673.64336    2816.0829    2903.8773    2812.4459    2731.9254   -193.46089    214.83978   -4.0914995    33.981998    33.981998    33.981998           90           90           90    39241.603 
     213        0.213   -673.75258    2699.2736    2790.1787    2701.7734    2605.8688   -228.58157    243.57582   0.26012511    33.981998    33.981998    33.981998           90           90           90    39241.603 
     214        0.214   -673.84619    2738.2701    2827.2714    2756.5098     2631.029   -223.09087    269.34127   -6.9146174    33.981998    33.981998    33.981998           90           90           90    39241.603 
     215        0.215   -673.95993    2651.5342    2749.1115    2687.3184    2518.1729   -217.54765    263.55772    3.7081331    33.981998    33.981998    33.981998           90           90           90    39241.603 
     216        0.216   -674.05063    2727.1165    2840.2627    2766.9482    2574.1386   -234.81816    245.67433    1.1237393    33.981998    33.981998    33.981998           90           90           90    39241.603 
     217        0.217    -674.1664    2698.3159    2791.5566    2760.3474    2543.0436   -213.50429    225.82873   -16.592324    33.981998    33.981998    33.981998           90           90           90    39241.603 
     218        0.218   -674.25364    2808.0867    2889.2449    2872.0801    2662.9352   -205.59954    229.59123   -3.9191927    33.981998    33.981998    33.981998           90           90           90    39241.603 
     219        0.219    -674.3679    2776.8782    2876.8731    2834.0541    2619.7073   -211.12576    235.01381    7.7769137    33.981998    33.981998    33.981998           90           90           90    39241.603 
     220         0.22   -674.45768    2859.6124    2973.9842    2932.6369     2672.216   -184.72432     229.5531  -0.87234744    33.981998    33.981998    33.981998           90           90           90    39241.603 
     221        0.221   -674.55852    2772.4769    2888.6701    2857.8169    2570.9437   -186.43809    247.54354   -1.6118493    33.981998    33.981998    33.981998           90           90           90    39241.603 
     222        0.222   -674.65368    2828.1095    2927.1732    2907.4724     2649.683   -203.04091    244.34806    3.9658733    33.981998    33.981998    33.981998           90           90           90    39241.603 
     223        0.223   -674.73823    2688.9609    2767.3949    2761.3237    2538.1643   -189.20559    232.10017    9.9649949    33.981998    33.981998    33.981998           90           90           90    39241.603 
     224        0.224   -674.82926    2724.0908    2792.5427    2793.5683    2586.1613    -180.5902    249.14407     14.52724    33.981998    33.981998    33.981998           90           90           90    39241.603 
     225        0.225   -674.91436    2628.1541    2691.7525    2728.2181    2464.4918   -172.40478    246.37085    17.263615    33.981998    33.981998    33.981998           90           90           90    39241.603 
     226        0.226    -674.9926    2776.0473    2831.9449    2904.4227    2591.7743   -162.24047    252.20147     12.29071    33.981998    33.981998    33.981998           90           90           90    39241.603 
     227        0.227   -675.08113    2703.5522    2761.1886    2825.1843    2524.2835   -176.70382      275.615     2.921929    33.981998    33.981998    33.981998           90           90           90    39241.603 
     228        0.228    -675.1669    2793.5768    2851.5543    2889.8144    2639.3618   -180.46172    245.37607    14.601976    33.981998    33.981998    33.981998           90           90           90    39241.603 
     229        0.229   -675.24362    2658.0978    2699.1715    2759.3755    2515.7463   -175.04718    246.96924    27.219791    33.981998    33.981998    33.981998           90           90           90    39241.603 
     230         0.23   -675.32445    2773.0037    2787.1834     2910.409    2621.4186   -170.72313    298.55004    15.555311    33.981998    33.981998    33.981998           90           90           90    39241.603 
     231        0.231   -675.41285    2626.5805      2624.06    2781.8851    2473.7964   -156.93186    286.58256    19.148417    33.981998    33.981998    33.981998           90           90           90    39241.603 
     232        0.232   -675.48108    2696.9148    2685.2617    2845.4819    2560.0008   -151.92518    269.82188    31.333802    33.981998    33.981998    33.981998           90           90           90    39241.603 
     233        0.233   -675.56301    2559.4093     2550.911    2691.0181    2436.2988   -154.07111    264.87605    25.270607    33.981998    33.981998    33.981998           90           90           90    39241.603 
     234        0.234   -675.64355    2617.7106    2613.2489    2749.1773    2490.7057   -152.57512    253.06774    20.054986    33.981998    33.981998    33.981998           90           90           90    39241.603 
     235        0.235   -675.71125    2506.1853    2497.4978    2640.1813    2380.8768    -159.9319    275.26682    25.293063    33.981998    33.981998    33.981998           90           90           90    39241.603 
     236        0.236   -675.79132    2552.2416    2537.7326    2679.8486    2439.1437   -160.20427      298.562    28.056443    33.981998    33.981998    33.981998           90           90           90    39241.603 
     237        0.237   -675.86799    2513.5082    2501.8854    2626.5521    2412.0872   -164.33098    283.44933     27.01177    33.981998    33.981998    33.981998           90           90           90    39241.603 
     238        0.238   -675.94114    2586.5937    2583.8119    2686.0496    2489.9197   -185.75089    272.80853    16.066659    33.981998    33.981998    33.981998           90           90           90    39241.603 
     239        0.239   -676.02021    2616.1416    2638.7488    2721.9413    2487.7348   -193.00511    262.34618   -2.1887346    33.981998    33.981998    33.981998           90           90           90    39241.603 
     240         0.24   -676.08945    2633.1736    2671.7828    2744.5051    2483.2329   -196.34408    251.52927   0.61018212    33.981998    33.981998    33.981998           90           90           90    39241.603 
     241        0.241   -676.17359     2656.322    2702.0577    2754.9786    2511.9298    -225.3876    256.87775    14.938757    33.981998    33.981998    33.981998           90           90           90    39241.603 
     242        0.242   -676.23419    2574.6399    2632.4788    2662.3928    2429.0481   -231.10408    254.58413    17.455883    33.981998    33.981998    33.981998           90           90           90    39241.603 
     243        0.243   -676.31896    2603.9785     2672.263    2693.5674    2446.1052   -239.60348    249.37486    18.701884    33.981998    33.981998    33.981998           90           90           90    39241.603 
     244        0.244   -676.38169    2517.8669    2579.1458    2630.5294    2343.9256   -265.57419    237.17648    19.280338    33.981998    33.981998    33.981998           90           90           90    39241.603 
     245        0.245   -676.45249    2637.8639    2700.1391    2777.9823    2435.4703    -277.1964    224.61251    20.350166    33.981998    33.981998    33.981998           90           90           90    39241.603 
     246        0.246   -676.51676      2505.38    2566.2891    2653.8889    2295.9622   -267.21621    241.07765    20.037979    33.981998    33.981998    33.981998           90           90           90    39241.603 
     247        0.247   -676.58948    2643.6983    2703.2582    2781.9115    2445.9251   -259.56391    259.53985    3.6715278    33.981998    33.981998    33.981998           90           90           90    39241.603 
     248        0.248   -676.64855    2511.9405    2568.2244    2659.1665    2308.4305   -259.35638    248.83821     2.879806    33.981998    33.981998    33.981998           90           90           90    39241.603 
     249        0.249   -676.71239    2704.0142     2744.047    2887.4498    2480.5459   -273.96757    246.99517    4.6814016    33.981998    33.981998    33.981998           90           90           90    39241.603 
     250         0.25   -676.78031     2539.587    2582.9788     2731.201    2304.5814   -269.80539    255.73277   -7.2750309    33.981998    33.981998    33.981998           90           90           90    39241.603 
     251        0.251   -676.83374    2688.6306    2747.4131    2864.0892    2454.3896   -254.14811    262.92688   -7.7984311    33.981998    33.981998    33.981998           90           90           90    39241.603 
     252        0.252   -676.90245    2528.8114    2574.9362     2691.706     2319.792   -252.57569    286.97028 -0.082138891    33.981998    33.981998    33.981998           90           90           90    39241.603 
     253        0.253   -676.95738    2673.5217    2698.9396    2856.0724     2465.553   -266.52097    290.83652   -12.946099    33.981998    33.981998    33.981998           90           90           90    39241.603 
     254        0.254   -677.01695    2481.3917    2496.9338    2689.7859    2257.4555   -266.88079    280.96905   -28.678808    33.981998    33.981998    33.981998           90           90           90    39241.603 
     255        0.255    -677.0763    2589.9057    2615.0768    2791.8646    2362.7758   -265.11352    277.30559   -44.315163    33.981998    33.981998    33.981998           90           90           90    39241.603 
     256        0.256   -677.14081    2438.9627    2478.8998    2628.7821    2209.2062   -273.47884    273.33117   -46.641083    33.981998    33.981998    33.981998           90           90           90    39241.603 
     257        0.257   -677.19899    2590.3029    2622.1734    2795.2406    2353.4947   -280.49311    284.58638   -39.042833    33.981998    33.981998    33.981998           90           90           90    39241.603 
     258        0.258   -677.27172    2472.6806    2476.5558    2712.3982    2229.0878   -270.87065    303.88097   -47.440558    33.981998    33.981998    33.981998           90           90           90    39241.603 
     259        0.259   -677.33377    2601.5278    2605.2132    2843.0164    2356.3537   -265.80601    286.64578    -51.34784    33.981998    33.981998    33.981998           90           90           90    39241.603 
     260         0.26    -677.4107    2483.5922    2497.7167    2694.7404    2258.3196   -273.75449    258.42354   -46.819356    33.981998    33.981998    33.981998           90           90           90    39241.603 
     261        0.261   -677.47294    2597.4692    2613.1431    2791.6566    2387.6079   -286.07035     259.0587   -57.313784    33.981998    33.981998    33.981998           90           90           90    39241.603 
     262        0.262   -677.55723    2459.4574    2492.2011    2641.2412    2244.9298    -279.3196    263.21954   -56.240635    33.981998    33.981998    33.981998           90           90           90    39241.603 
     263        0.263   -677.61608    2535.3547    2569.4229    2715.7666    2320.8745   -262.25255    267.77268   -49.426067    33.981998    33.981998    33.981998           90           90           90    39241.603 
     264        0.264    -677.6904    2407.0362    2439.4407    2574.2138     2207.454   -256.91986     272.9542   -57.164548    33.981998    33.981998    33.981998           90           90           90    39241.603 
     265        0.265   -677.74955    2486.9363     2534.549     2629.472     2296.788   -260.34297    267.25286   -56.701653    33.981998    33.981998    33.981998           90           90           90    39241.603 
     266        0.266   -677.81543    2386.8087      2451.89    2498.6602    2209.8758   -261.54601    253.77079   -57.455881    33.981998    33.981998    33.981998           90           90           90    39241.603 
     267        0.267   -677.86891    2491.4867     2564.159    2587.1979    2323.1032   -257.69652    238.10955   -63.926661    33.981998    33.981998    33.981998           90           90           90    39241.603 
     268        0.268   -677.93057    2424.3284    2495.3407     2523.244    2254.4006   -242.47825    230.65123   -55.465078    33.981998    33.981998    33.981998           90           90           90    39241.603 
     269        0.269   -677.98194    2530.9077    2593.9651    2636.6855    2362.0725      -252.73    228.77428   -53.508166    33.981998    33.981998    33.981998           90           90           90    39241.603 
     270         0.27   -678.03172    2434.1358    2512.6217    2531.1687    2258.6171   -258.49101    215.04682   -54.492267    33.981998    33.981998    33.981998           90           90           90    39241.603 
     271        0.271    -678.0889    2505.4487    2606.5862    2594.1627    2315.5972   -230.11252    197.69388   -48.059725    33.981998    33.981998    33.981998           90           90           90    39241.603 
     272        0.272    -678.1343     2374.653    2460.1728    2486.2001    2177.5862     -232.707    195.20892   -41.789664    33.981998    33.981998    33.981998           90           90           90    39241.603 
     273        0.273   -678.18635    2425.7997    2492.6477    2566.0916    2218.6596   -248.96904    197.87858   -27.354004    33.981998    33.981998    33.981998           90           90           90    39241.603 
     274        0.274   -678.24112    2305.9831    2373.3993    2443.8885    2100.6615   -226.02412    204.87327   -23.748954    33.981998    33.981998    33.981998           90           90           90    39241.603 
     275        0.275   -678.29125    2395.0769    2465.4711     2525.437    2194.3225   -215.71558    206.89789   -33.725645    33.981998    33.981998    33.981998           90           90           90    39241.603 
     276        0.276   -678.34377     2303.217    2383.5634    2444.7665    2081.3212   -226.47223    206.03677   -26.278556    33.981998    33.981998    33.981998           90           90           90    39241.603 
     277        0.277   -678.39278    2381.6257    2453.4713    2545.1281    2146.2778   -234.83121    218.36126    -26.33991    33.981998    33.981998    33.981998           90           90           90    39241.603 
     278        0.278   -678.44085    2313.4869    2375.2617    2474.6463    2090.5528   -248.62766    227.00541   -36.745955    33.981998    33.981998    33.981998           90           90           90    39241.603 
     279        0.279   -678.48286    2386.8403    2458.1201    2522.8105    2179.5903   -251.27088    228.29181   -29.731632    33.981998    33.981998    33.981998           90           90           90    39241.603 
     280         0.28   -678.52629    2345.3836    2419.6164    2477.9272    2138.6073   -245.74352    233.32346   -25.018564    33.981998    33.981998    33.981998           90           90           90    39241.603 
     281        0.281    -678.5746    2378.1277    2454.2749    2519.3053     2160.803   -258.89312    236.48686    -28.62921    33.981998    33.981998    33.981998           90           90           90    39241.603 
     282        0.282   -678.61642    2332.4658     2405.995     2480.062    2111.3405   -277.52045    227.54939   -16.190514    33.981998    33.981998    33.981998           90           90           90    39241.603 
     283        0.283   -678.66333    2317.8928    2373.6769    2463.5721    2116.4293   -275.68238    219.07551    -15.58494    33.981998    33.981998    33.981998           90           90           90    39241.603 
     284        0.284   -678.70891    2320.0129    2369.6586    2450.4746    2139.9056   -265.08009    219.84687   -16.708378    33.981998    33.981998    33.981998           90           90           90    39241.603 
     285        0.285   -678.75057    2287.8732     2330.234    2419.8691    2113.5166   -272.77036    228.11772   -7.0010187    33.981998    33.981998    33.981998           90           90           90    39241.603 
     286        0.286   -678.79091    2325.1473    2343.3246    2478.3432    2153.7742   -279.90231    226.97342   -3.3556983    33.981998    33.981998    33.981998           90           90           90    39241.603 
     287        0.287    -678.8314     2277.608    2287.3478    2446.1677    2099.3084   -265.43329    219.32248    1.8802791    33.981998    33.981998    33.981998           90           90           90    39241.603 
     288        0.288   -678.86852    2357.4899    2363.4393    2523.4969    2185.5336    -261.3414    220.76525     11.62736    33.981998    33.981998    33.981998           90           90           90    39241.603 
     289        0.289   -678.90593      2275.41    2266.0509    2434.2341    2125.9449   -269.89858    221.71319    1.0029115    33.981998    33.981998    33.981998           90           90           90    39241.603 
     290         0.29   -678.94902    2347.2256    2324.0218    2504.6651    2212.9898   -257.60478    212.85343  -0.93379966    33.981998    33.981998    33.981998           90           90           90    39241.603 
     291        0.291    -678.9826    2234.2109    2197.2452    2398.9813    2106.4062    -248.6315    203.78606    5.7928533    33.981998    33.981998    33.981998           90           90           90    39241.603 
     292        0.292   -679.02681    2343.9007    2305.2662    2507.7877    2218.6483   -260.14806     190.2762    16.237365    33.981998    33.981998    33.981998           90           90           90    39241.603 
     293        0.293   -679.06432    2230.5649    2217.3764    2373.0623     2101.256   -246.17794    180.60165    22.714269    33.981998    33.981998    33.981998           90           90           90    39241.603 
     294        0.294   -679.10087    2344.2041    2333.1114    2476.0102    2223.4906   -232.13708    179.69932    22.968879    33.981998    33.981998    33.981998           90           90           90    39241.603 
     295        0.295   -679.14163    2251.0707    2221.2226     2390.646    2141.3435   -237.51227    183.19146    16.398461    33.981998    33.981998    33.981998           90           90           90    39241.603 
     296        0.296   -679.17785    2376.7168    2341.8925    2527.6393    2260.6185    -224.7418     183.1295    29.577722    33.981998    33.981998    33.981998           90           90           90    39241.603 
     297        0.297   -679.21974    2291.7425    2257.3053    2445.6786    2172.2438   -206.05956     180.2327     31.71831    33.981998    33.981998    33.981998           90           90           90    39241.603 
     298        0.298   -679.25388    2372.0097    2362.1783    2512.4821    2241.3688   -212.65094    186.11243    32.212472    33.981998    33.981998    33.981998           90           90           90    39241.603 
     299        0.299   -679.29424    2302.2363    2303.6858    2450.4052    2152.6179   -197.98034    195.22062    45.149379    33.981998    33.981998    33.981998           90           90           90    39241.603 
     300          0.3   -679.32886    2367.6181    2340.7936    2546.4906    2215.5701   -186.06424    199.10301     45.83682    33.981998    33.981998    33.981998           90           90           90    39241.603 
     301        0.301   -679.36604    2312.3099    2254.3529    2515.2781    2167.2987    -192.2049    206.24264    32.426335    33.981998    33.981998    33.981998           90           90           90    39241.603 
     302        0.302   -679.39918    2329.1801    2267.7367    2530.9494    2188.8541   -189.95166    211.90993    27.192682    33.981998    33.981998    33.981998           90           90           90    39241.603 
     303        0.303   -679.43742    2302.6597    2260.3205    2487.2671    2160.3916   -188.41874    212.80656    12.682185    33.981998    33.981998    33.981998           90           90           90    39241.603 
     304        0.304   -679.46893    2295.7429    2263.8555    2489.2865    2134.0867    -203.9309    215.90788    4.7924715    33.981998    33.981998    33.981998           90           90           90    39241.603 
     305        0.305   -679.50813    2307.6766    2260.7024    2533.2388    2129.0886   -202.16641    216.46009   -5.2864504    33.981998    33.981998    33.981998           90           90           90    39241.603 
     306        0.306   -679.54256     2294.173    2237.8118    2525.2399    2119.4672   -189.46371    213.83639   -20.546157    33.981998    33.981998    33.981998           90           90           90    39241.603 
     307        0.307    -679.5746    2347.6409    2311.6614    2554.1202     2177.141    -185.8211    222.09763   -29.507886    33.981998    33.981998    33.981998           90           90           90    39241.603 
     308        0.308   -679.60722    2315.5255    2292.1678    2509.7052    2144.7036   -186.63443    224.21786   -40.503435    33.981998    33.981998    33.981998           90           90           90    39241.603 
     309        0.309   -679.64067    2379.1465     2366.536    2588.7832    2182.1205   -186.61618    214.51813   -48.434467    33.981998    33.981998    33.981998           90           90           90    39241.603 
     310         0.31    -679.6656    2327.5492    2330.9387    2543.1666    2108.5423   -181.41657    213.40623   -42.293362    33.981998    33.981998    33.981998           90           90           90    39241.603 
     311        0.311    -679.7031    2391.6282    2401.3452    2607.2459    2166.2936    -172.2992    219.72576   -43.391031    33.981998    33.981998    33.981998           90           90           90    39241.603 
     312        0.312   -679.72918    2306.1252    2318.7439    2519.8428     2079.789   -170.27158    222.17908   -52.644338    33.981998    33.981998    33.981998           90           90           90    39241.603 
     313        0.313   -679.75881    2343.6245     2355.944    2561.4736     2113.456   -166.72122    222.70237   -53.234443    33.981998    33.981998    33.981998           90           90           90    39241.603 
     314        0.314   -679.78904    2271.2301    2272.1039    2499.6072    2041.9792   -171.34869    217.82887   -55.196131    33.981998    33.981998    33.981998           90           90           90    39241.603 
     315        0.315   -679.81501    2339.8351    2347.6749     2573.435    2098.3953   -174.10691    220.98216   -54.880219    33.981998    33.981998    33.981998           90           90           90    39241.603 
     316        0.316   -679.84378    2287.8241    2307.1233    2525.0791    2031.2699   -165.14428    227.37881   -53.015639    33.981998    33.981998    33.981998           90           90           90    39241.603 
     317        0.317   -679.86948      2331.72    2352.1088    2567.0446    2076.0067   -170.77671    232.00184   -60.987135    33.981998    33.981998    33.981998           90           90           90    39241.603 
     318        0.318   -679.89887    2305.6104    2332.9537    2529.6897    2054.1877   -176.24024    234.83014   -71.521435    33.981998    33.981998    33.981998           90           90           90    39241.603 
     319        0.319    -679.9239    2351.0418    2372.7172    2575.1224    2105.2858   -172.03852    232.89234   -78.017448    33.981998    33.981998    33.981998           90           90           90    39241.603 
[...]
 1465900     732.6185   -432.33223    209.36639    450.29994    48120.139    543.63328    36.372707    36.372707    36.372707           90           90           90 
 1466000     732.6685   -434.54181    211.35227    454.57112    47949.848     -1194.68     36.32975     36.32975     36.32975           90           90           90 
 1466100     732.7185   -436.38392    210.39545    452.51322     47782.08    915.87526     36.28733     36.28733     36.28733           90           90           90 
 1466200     732.7685    -439.5956     208.6067    448.66602    47702.398    171.98662    36.267148    36.267148    36.267148           90           90           90 
 1466300     732.8185   -437.62676    206.09896    443.27243    47751.488     1645.248    36.279584    36.279584    36.279584           90           90           90 
 1466400     732.8685   -435.45669    205.35301    441.66806    47845.157   -677.59573    36.303291    36.303291    36.303291           90           90           90 
 1466500     732.9185   -431.46214    203.95732    438.66625    47877.639   -1167.4249    36.311504    36.311504    36.311504           90           90           90 
 1466600     732.9685   -436.54007    210.33568    452.38465    47908.435   -2431.5949    36.319288    36.319288    36.319288           90           90           90 
 1466700     733.0185   -435.71984    209.80611    451.24567     47950.13    -165.3212    36.329821    36.329821    36.329821           90           90           90 
 1466800     733.0685   -434.86646    207.92522     447.2003    47944.687    656.77629    36.328447    36.328447    36.328447           90           90           90 
 1466900     733.1185   -438.30558     207.8844     447.1125     47844.26    2325.4327    36.303064    36.303064    36.303064           90           90           90 
 1467000     733.1685   -437.08597    208.84521    449.17899    47659.559   -1539.0778    36.256288    36.256288    36.256288           90           90           90 
 1467100     733.2185   -435.14587    212.02351     456.0148    47377.552   -565.92311    36.184636    36.184636    36.184636           90           90           90 
 1467200     733.2685   -432.98357     212.0345    456.03843    47223.722   -321.78485    36.145431    36.145431    36.145431           90           90           90 
 1467300     733.3185   -426.54829    205.09056     441.1036    47384.974    1152.3156    36.186525    36.186525    36.186525           90           90           90 
 1467400     733.3685   -437.28343    208.86449    449.22046    47790.303    230.43689    36.289412    36.289412    36.289412           90           90           90 
 1467500     733.4185   -434.45426    204.02437    438.81047    48217.095    367.12606    36.397119    36.397119    36.397119           90           90           90 
 1467600     733.4685   -435.03074    209.76098    451.14861     48499.29    263.72479    36.467987    36.467987    36.467987           90           90           90 
 1467700     733.5185   -431.61891    209.16898    449.87536    48538.007   -478.30509    36.477689    36.477689    36.477689           90           90           90 
 1467800     733.5685   -431.48941    207.62386    446.55215    48294.849   -1927.2499    36.416673    36.416673    36.416673           90           90           90 
 1467900     733.6185   -433.78567    208.23303    447.86235    47885.178    -38.69659     36.31341     36.31341     36.31341           90           90           90 
 1468000     733.6685   -438.58744    208.98001    449.46892     47589.54    1064.6055    36.238524    36.238524    36.238524           90           90           90 
 1468100     733.7185   -441.81405     204.1547    439.09077    47553.219    1800.1243    36.229303    36.229303    36.229303           90           90           90 
 1468200     733.7685   -440.78397    206.48961    444.11264    47733.329   -209.92964    36.274985    36.274985    36.274985           90           90           90 
 1468300     733.8185   -434.76155    205.75211    442.52643    47952.246   -2239.9263    36.330356    36.330356    36.330356           90           90           90 
 1468400     733.8685   -435.30847     210.2289      452.155    48090.842   -541.04845    36.365324    36.365324    36.365324           90           90           90 
 1468500     733.9185    -431.1749    208.83011    449.14652    48213.417   -103.31593    36.396194    36.396194    36.396194           90           90           90 
 1468600     733.9685    -429.6525    208.17494     447.7374    48286.693     62.26934    36.414623    36.414623    36.414623           90           90           90 
 1468700     734.0185   -437.85711    211.21997    454.28657     48250.06    274.42253    36.405412    36.405412    36.405412           90           90           90 
 1468800     734.0685   -438.89069    207.83123    446.99816    48176.774    587.30667    36.386971    36.386971    36.386971           90           90           90 
 1468900     734.1185   -436.04188    208.67462    448.81211    48129.851    194.96129    36.375154    36.375154    36.375154           90           90           90 
 1469000     734.1685   -433.07588    209.52596    450.64314    48108.612    1208.7586    36.369803    36.369803    36.369803           90           90           90 
 1469100     734.2185   -437.44021    214.72766    461.83082    48222.433   -733.29925    36.398463    36.398463    36.398463           90           90           90 
 1469200     734.2685   -431.70796    206.83114    444.84718    48352.575    1762.5382    36.431177    36.431177    36.431177           90           90           90 
 1469300     734.3185    -430.3125    205.95021    442.95251    48515.028    237.67259    36.471932    36.471932    36.471932           90           90           90 
 1469400     734.3685   -429.52188    206.44679    444.02053     48553.83    -259.8938    36.481652    36.481652    36.481652           90           90           90 
 1469500     734.4185   -431.22923    212.17601    456.34281      48441.7   -427.56025    36.453547    36.453547    36.453547           90           90           90 
 1469600     734.4685   -431.48284    212.88063    457.85828    48222.058   -693.10867    36.398368    36.398368    36.398368           90           90           90 
 1469700     734.5185    -433.7945    207.01387    445.24021    47984.902    595.42402    36.338601    36.338601    36.338601           90           90           90 
 1469800     734.5685   -437.90625     208.6091    448.67118    47764.475   -1119.9386    36.282873    36.282873    36.282873           90           90           90 
 1469900     734.6185   -433.89224    207.28273    445.81846    47636.878    290.92544    36.250536    36.250536    36.250536           90           90           90 
 1470000     734.6685    -432.7258    211.68324    455.28296    47695.882    1563.1192    36.265497    36.265497    36.265497           90           90           90 
 1470100     734.7185   -433.41351    213.20611     458.5583    47951.149    1964.6596    36.330079    36.330079    36.330079           90           90           90 
 1470200     734.7685   -432.92188    210.96518    453.73859     48271.75   -226.53695    36.410867    36.410867    36.410867           90           90           90 
 1470300     734.8185    -431.9398    206.76619    444.70748    48499.066   -1142.5077    36.467931    36.467931    36.467931           90           90           90 
 1470400     734.8685   -429.39007    203.28711    437.22478    48575.925    50.910541    36.487185    36.487185    36.487185           90           90           90 
 1470500     734.9185   -430.85728     210.2886     452.2834    48520.435   -769.94541    36.473286    36.473286    36.473286           90           90           90 
 1470600     734.9685   -434.20711    216.16223    464.91627    48341.433   -917.68443    36.428379    36.428379    36.428379           90           90           90 
 1470700     735.0185   -434.71401     213.2788    458.71466    48143.063    821.42184    36.378482    36.378482    36.378482           90           90           90 
 1470800     735.0685   -437.17142    210.82055    453.42751    47974.352    1389.8461    36.335938    36.335938    36.335938           90           90           90 
 1470900     735.1185    -435.3003    207.39814    446.06668    47826.489    3118.4183    36.298569    36.298569    36.298569           90           90           90 
 1471000     735.1685   -434.89261    209.18975    449.92003    47768.358    756.21252    36.283856    36.283856    36.283856           90           90           90 
 1471100     735.2185   -430.86536    212.98016    458.07234    47816.575    151.17293     36.29606     36.29606     36.29606           90           90           90 
 1471200     735.2685   -429.27593    210.41377    452.55262    47946.786    244.96223    36.328977    36.328977    36.328977           90           90           90 
 1471300     735.3185   -432.29466    208.79842    449.07836     48073.74   -153.69962    36.361013    36.361013    36.361013           90           90           90 
 1471400     735.3685   -429.50607    205.81172    442.65465    48163.766    462.87702    36.383696    36.383696    36.383696           90           90           90 
 1471500     735.4185    -430.3487    209.85069    451.34156    48351.524    912.52602    36.430913    36.430913    36.430913           90           90           90 
 1471600     735.4685   -428.42881    209.17104    449.87978    48531.657    1146.3323    36.476098    36.476098    36.476098           90           90           90 
 1471700     735.5185   -430.07005    209.98491    451.63024    48582.705   -56.385833    36.488882    36.488882    36.488882           90           90           90 
 1471800     735.5685    -429.8838    204.45455    439.73569    48416.684   -1459.7888    36.447271    36.447271    36.447271           90           90           90 
 1471900     735.6185   -433.88444    208.20459    447.80117    48101.584    443.55028    36.368031    36.368031    36.368031           90           90           90 
 1472000     735.6685   -427.53176     208.1376    447.65708    47810.519    -124.3603    36.294528    36.294528    36.294528           90           90           90 
 1472100     735.7185   -428.48306    211.22545    454.29835    47685.795     1358.691     36.26294     36.26294     36.26294           90           90           90 
 1472200     735.7685   -430.79622    209.60276    450.80832    47780.297    1108.1668    36.286879    36.286879    36.286879           90           90           90 
 1472300     735.8185   -428.99973    204.67823    440.21676    48068.152    926.93115    36.359604    36.359604    36.359604           90           90           90 
 1472400     735.8685   -432.87348    207.31592    445.88985    48349.018   -2275.7334    36.430284    36.430284    36.430284           90           90           90 
 1472500     735.9185   -432.82974    205.70531    442.42578    48424.006   -2389.7452    36.449108    36.449108    36.449108           90           90           90 
 1472600     735.9685   -433.81306    209.49232    450.57078    48251.465    143.33291    36.405765    36.405765    36.405765           90           90           90 
 1472700     736.0185   -428.88963     211.5091    454.90843    47951.601    2165.3322    36.330193    36.330193    36.330193           90           90           90 
 1472800     736.0685   -429.11326    212.15505    456.29772    47721.064    521.26077    36.271878    36.271878    36.271878           90           90           90 
 1472900     736.1185   -432.22645    209.65521    450.92112    47589.421    5.9890917    36.238494    36.238494    36.238494           90           90           90 
 1473000     736.1685   -433.68875     207.3002    445.85603    47495.302   -545.76102    36.214588    36.214588    36.214588           90           90           90 
 1473100     736.2185   -433.88602    207.20169    445.64417    47446.689    2405.0332    36.202228    36.202228    36.202228           90           90           90 
 1473200     736.2685   -435.67694    208.87691    449.24717    47523.669    922.51389    36.221797    36.221797    36.221797           90           90           90 
 1473300     736.3185   -434.14573    210.26241    452.22707     47829.86    742.38197    36.299421    36.299421    36.299421           90           90           90 
 1473400     736.3685   -428.84366     209.7105    451.04005    48290.796   -604.22147    36.415655    36.415655    36.415655           90           90           90 
 1473500     736.4185   -426.35658    211.30498    454.46941    48765.068   -1336.9327    36.534481    36.534481    36.534481           90           90           90 
 1473600     736.4685   -425.45406    210.17767    452.04482    49040.094   -2127.0607    36.603035    36.603035    36.603035           90           90           90 
 1473700     736.5185    -428.1419    204.37837    439.57182    48993.109    -1804.159    36.591342    36.591342    36.591342           90           90           90 
 1473800     736.5685   -430.34588    207.53307    446.35689    48715.503   -748.51926    36.522099    36.522099    36.522099           90           90           90 
 1473900     736.6185   -429.73863    211.04222    453.90426    48365.093    693.46103    36.434321    36.434321    36.434321           90           90           90 
 1474000     736.6685   -430.51142    212.66214    457.38836     48105.32   -92.832512    36.368973    36.368973    36.368973           90           90           90 
 1474100     736.7185    -431.0652    206.01872    443.09986    47971.585    1022.9014    36.335239    36.335239    36.335239           90           90           90 
 1474200     736.7685   -437.53117    209.91552    451.48099    47934.038   -980.14837    36.325757    36.325757    36.325757           90           90           90 
 1474300     736.8185   -437.50535    209.01659     449.5476    47849.241   -1272.8824    36.304324    36.304324    36.304324           90           90           90 
 1474400     736.8685   -435.89289    208.44052     448.3086    47779.288   -256.25003    36.286624    36.286624    36.286624           90           90           90 
 1474500     736.9185   -432.10365    210.82704    453.44146    47777.818    2682.2728    36.286251    36.286251    36.286251           90           90           90 
 1474600     736.9685   -430.63473    212.01184     455.9897    47842.276    1343.2639    36.302562    36.302562    36.302562           90           90           90 
 1474700     737.0185   -433.78931    213.63685    459.48473    47921.165   -1173.9846    36.322505    36.322505    36.322505           90           90           90 
 1474800     737.0685   -430.57792     207.6186    446.54083    47968.105   -2033.8825    36.334361    36.334361    36.334361           90           90           90 
 1474900     737.1185   -429.43737    206.60917    444.36978    48034.148   -437.38106    36.351028    36.351028    36.351028           90           90           90 
 1475000     737.1685   -432.05142    210.31238    452.33456    48139.815   -423.20654    36.377664    36.377664    36.377664           90           90           90 
 1475100     737.2185   -431.84397    212.15964    456.30758    48289.612    77.353696    36.415357    36.415357    36.415357           90           90           90 
 1475200     737.2685   -427.76278    208.84344    449.17518     48427.34   -517.65624    36.449944    36.449944    36.449944           90           90           90 
 1475300     737.3185   -428.31885    208.84267    449.17355    48496.981   -1128.2675    36.467409    36.467409    36.467409           90           90           90 
 1475400     737.3685   -433.16203     208.4229     448.2707    48433.223   -2047.4525     36.45142     36.45142     36.45142           90           90           90 
 1475500     737.4185   -432.41434    203.79161    438.30984    48190.222    -630.6104    36.390356    36.390356    36.390356           90           90           90 
 1475600     737.4685   -431.05202    206.85922    444.90758    47885.039   -625.90588    36.313375    36.313375    36.313375           90           90           90 
 1475700     737.5185   -431.47693    211.86345    455.67055    47622.733   -3.3156734    36.246947    36.246947    36.246947           90           90           90 
WARNING: Wall time limit reached (../timer.cpp:263)
Loop time of 84654.1 on 28 procs for 1475000 steps with 3909 atoms

Performance: 0.753 ns/day, 31.885 hours/ns, 17.424 timesteps/s
100.0% CPU use with 4 MPI tasks x 7 OpenMP threads

MPI task timing breakdown:
Section |  min time  |  avg time  |  max time  |%varavg| %total
---------------------------------------------------------------
Pair    | 34950      | 35034      | 35126      |  34.8 | 41.39
Bond    | 451.94     | 454.01     | 454.96     |   5.7 |  0.54
Kspace  | 45914      | 46071      | 46315      |  69.8 | 54.42
Neigh   | 1013       | 1014.3     | 1015.7     |   3.9 |  1.20
Comm    | 996.28     | 1330.4     | 1569       | 570.4 |  1.57
Output  | 8.5906     | 13.292     | 27.385     | 223.2 |  0.02
Modify  | 697.26     | 710.35     | 715.45     |  28.4 |  0.84
Other   |            | 26.39      |            |       |  0.03

Nlocal:    977.25 ave 980 max 970 min
Histogram: 1 0 0 0 0 0 0 0 0 3
Nghost:    11042.8 ave 11092 max 10979 min
Histogram: 1 0 0 0 0 1 0 1 0 1
Neighs:    445479 ave 448577 max 441612 min
Histogram: 1 0 0 0 1 0 0 0 1 1

Total # of neighbors = 1781916
Ave neighs/atom = 455.85
Ave special neighs/atom = 6.37145
Neighbor list builds = 39802
Dangerous builds = 0
unfix 4
unfix 2
#unfix 1
undump TRAJ
unfix SHAKE
#
write_data     last.${pid}.data
write_data     last.0.data
Ewald initialization ...
  using polynomial approximation for long-range coulomb (../kspace.cpp:321)
  G vector (1/distance) = 0.291183
  estimated absolute RMS force accuracy = 1.62223e-07
  estimated relative force accuracy = 1.12658e-08
  KSpace vectors: actual max1d max3d = 4585 13 9841
                  kxmax kymax kzmax  = 13 13 13
Neighbor list info ...
  update every 1 steps, delay 0 steps, check yes
  max neighbors/atom: 2000, page size: 100000
  master list distance cutoff = 15
  ghost atom cutoff = 15
  binsize = 7.5, bins = 5 5 5
  3 neighbor lists, perpetual/occasional/extra = 3 0 0
  (1) pair lj/cut, perpetual, skip from (2)
      attributes: half, newton on
      pair build: skip
      stencil: none
      bin: none
  (2) pair coul/long, perpetual
      attributes: half, newton on
      pair build: half/bin/newton
      stencil: half/bin/3d/newton
      bin: standard
  (3) pair morse, perpetual, skip from (2)
      attributes: half, newton on
      pair build: skip
      stencil: none
      bin: none
write_restart  last.${pid}.restart
write_restart  last.0.restart
Ewald initialization ...
  using polynomial approximation for long-range coulomb (../kspace.cpp:321)
  G vector (1/distance) = 0.291183
  estimated absolute RMS force accuracy = 1.62223e-07
  estimated relative force accuracy = 1.12658e-08
  KSpace vectors: actual max1d max3d = 4585 13 9841
                  kxmax kymax kzmax  = 13 13 13
Neighbor list info ...
  update every 1 steps, delay 0 steps, check yes
  max neighbors/atom: 2000, page size: 100000
  master list distance cutoff = 15
  ghost atom cutoff = 15
  binsize = 7.5, bins = 5 5 5
  3 neighbor lists, perpetual/occasional/extra = 3 0 0
  (1) pair lj/cut, perpetual, skip from (2)
      attributes: half, newton on
      pair build: skip
      stencil: none
      bin: none
  (2) pair coul/long, perpetual
      attributes: half, newton on
      pair build: half/bin/newton
      stencil: half/bin/3d/newton
      bin: standard
  (3) pair morse, perpetual, skip from (2)
      attributes: half, newton on
      pair build: skip
      stencil: none
      bin: none
Total wall time: 23:32:17
