Created on 24  5 2021 12: 1:18 using cif2lammps
  
        3909  atoms
        4078  bonds
        7223  angles
       10752  dihedrals
        3648  impropers
  
          12  atom types
          11  bond types
          14  angle types
          15  dihedral types
           8  improper types
  
   0.00000000       33.9819984      xlo xhi
   0.00000000       33.9819984      ylo yhi
   0.00000000       33.9819984      zlo zhi
  
Masses
  
   1     12.0107002  # C8  
   2     15.9989996  # O3  
   3      1.0079401  # H5  
   4     64.3720551  # Zn  
   5      1.0079401  # He  
   6      1.0079401  # H3  
   7     12.0107002  # C2  
   8      1.0079401  # H2  
   9     12.9987593  # N1  
  10     12.0107002  # C1  
  11     12.0107002  # C3  
  12      1.0079401  # Ne  
  
Atoms
  
    1   1   1  0.2650000     13.3005543     14.8229475      1.3660764  # C8   CH3_sp3_Me
    2   1   2 -0.7000000     12.9539375     13.8238773      2.2903867  # O3   O_MeOH    
    3   1   3  0.4350000     12.0262289     13.8816462      2.4806859  # H5   H_MeOH    
    4   1   1  0.2650000      2.3175724     20.4639587      3.8365674  # C8   CH3_sp3_Me
    5   1   2 -0.7000000      2.1476622     19.3765373      2.8646824  # O3   O_MeOH    
    6   1   3  0.4350000      1.8112406     18.6357269      3.3064485  # H5   H_MeOH    
    7   1   1  0.2650000      2.0457163     34.8247490     30.1624222  # C8   CH3_sp3_Me
    8   1   2 -0.7000000      1.6175432     33.5232430     29.8633785  # O3   O_MeOH    
    9   1   3  0.4350000      1.2199538     33.1698303     30.5804005  # H5   H_MeOH    
   10   1   1  0.2650000     32.9047699     14.4355536     30.5022411  # C8   CH3_sp3_Me
   11   1   2 -0.7000000     33.7135391     15.4788008     29.9313450  # O3   O_MeOH    
   12   1   3  0.4350000     33.7033463     16.2128124     30.4818535  # H5   H_MeOH    
   13   1   1  0.2650000     30.0706692     34.2878342      1.1044149  # C8   CH3_sp3_Me
   14   1   2 -0.7000000     30.7299194     33.0474930      1.4476330  # O3   O_MeOH    
   15   1   3  0.4350000     30.0944576     32.4052315      1.3830674  # H5   H_MeOH    
   16   1   1  0.2650000     31.4299507      3.5273314      1.2267501  # C8   CH3_sp3_Me
   17   1   2 -0.7000000     31.6610279      3.0923617     -0.0747604  # O3   O_MeOH    
   18   1   3  0.4350000     32.2896957      3.6904449     -0.4791462  # H5   H_MeOH    
   19   1   1  0.2650000     30.1556244      2.1136804     13.7185326  # C8   CH3_sp3_Me
   20   1   2 -0.7000000     31.5081100      2.4467037     14.0345650  # O3   O_MeOH    
   21   1   3  0.4350000     31.7154007      3.3574216     14.0821409  # H5   H_MeOH    
   22   1   1  0.2650000     12.8180103     16.8618679      3.4967475  # C8   CH3_sp3_Me
   23   1   2 -0.7000000     11.9140892     17.0623608      2.3719435  # O3   O_MeOH    
   24   1   3  0.4350000     11.4995089     16.2026157      2.2496085  # H5   H_MeOH    
   25   1   1  0.2650000     10.9761858      5.8279128     27.8142643  # C8   CH3_sp3_Me
   26   1   2 -0.7000000     11.4009609      5.5084820     29.1531582  # O3   O_MeOH    
   27   1   3  0.4350000     11.8733110      4.6453395     29.1021843  # H5   H_MeOH    
   28   1   1  0.2650000     15.4652071     21.1673870     18.6187382  # C8   CH3_sp3_Me
   29   1   2 -0.7000000     14.5239058     21.4664268     17.5313129  # O3   O_MeOH    
   30   1   3  0.4350000     13.8442669     21.9319820     18.1259975  # H5   H_MeOH    
   31   1   1  0.2650000     32.2727051     13.3073511     19.3595448  # C8   CH3_sp3_Me
   32   1   2 -0.7000000     31.0799370     14.0787420     19.2677917  # O3   O_MeOH    
   33   1   3  0.4350000     30.5464172     13.8272743     19.8964596  # H5   H_MeOH    
   34   1   1  0.2650000     18.1497860     12.5529499     15.8865843  # C8   CH3_sp3_Me
   35   1   2 -0.7000000     18.4964027     12.2607050     17.1609097  # O3   O_MeOH    
   36   1   3  0.4350000     19.3765373     12.7500458     17.3987846  # H5   H_MeOH    
   37   1   1  0.2650000     27.1618118     26.5195503     29.7818241  # C8   CH3_sp3_Me
   38   1   2 -0.7000000     26.2918720     25.4253311     29.3706417  # O3   O_MeOH    
   39   1   3  0.4350000     25.4559155     25.8467064     28.8948936  # H5   H_MeOH    
   40   1   1  0.2650000     24.7185059     29.4352055     23.8077888  # C8   CH3_sp3_Me
   41   1   2 -0.7000000     23.3422356     29.5031719     23.5563202  # O3   O_MeOH    
   42   1   3  0.4350000     23.1825199     30.4512691     23.4034023  # H5   H_MeOH    
   43   1   1  0.2650000      2.5180662     32.6363106     18.7954426  # C8   CH3_sp3_Me
   44   1   2 -0.7000000      2.2156262     33.8256798     19.5498428  # O3   O_MeOH    
   45   1   3  0.4350000      1.5767647     34.1994820     19.1352634  # H5   H_MeOH    
   46   1   1  0.2650000     23.8349724     27.5084267     27.3521099  # C8   CH3_sp3_Me
   47   1   2 -0.7000000     22.8393021     27.7225151     28.3477840  # O3   O_MeOH    
   48   1   3  0.4350000     22.1324768     28.2526321     28.0793266  # H5   H_MeOH    
   49   1   1  0.2650000      5.9332571     26.0913773     11.2956161  # C8   CH3_sp3_Me
   50   1   2 -0.7000000      5.7531524     25.0039558     10.2693596  # O3   O_MeOH    
   51   1   3  0.4350000      5.0055485     25.0991039      9.7460375  # H5   H_MeOH    
   52   1   1  0.2650000     24.1272182     26.8525753      8.9814415  # C8   CH3_sp3_Me
   53   1   2 -0.7000000     23.4237919     26.4583836     10.1538210  # O3   O_MeOH    
   54   1   3  0.4350000     22.5062771     26.3496418      9.9329376  # H5   H_MeOH    
   55   1   1  0.2650000     25.0617237      7.4726415     28.1133080  # C8   CH3_sp3_Me
   56   1   2 -0.7000000     25.3233852      8.4445267     29.1293697  # O3   O_MeOH    
   57   1   3  0.4350000     26.2646866      8.7809486     28.9594574  # H5   H_MeOH    
   58   1   1  0.2650000      1.9233811     16.6545773     13.1340427  # C8   CH3_sp3_Me
   59   1   2 -0.7000000      0.8019752     16.3725262     12.3252707  # O3   O_MeOH    
   60   1   3  0.4350000      0.1563172     16.9808044     12.7466469  # H5   H_MeOH    
   61   1   1  0.2650000      5.0123444      7.5304108     27.4370651  # C8   CH3_sp3_Me
   62   1   2 -0.7000000      4.7404890      6.6740646     28.5856571  # O3   O_MeOH    
   63   1   3  0.4350000      4.1220164      6.0352030     28.2900124  # H5   H_MeOH    
   64   1   1  0.2650000      5.8992748     28.5278873     25.1534748  # C8   CH3_sp3_Me
   65   1   2 -0.7000000      6.7250376     27.5084267     25.7311687  # O3   O_MeOH    
   66   1   3  0.4350000      7.3095279     27.8856277     26.2137127  # H5   H_MeOH    
   67   1   1  0.2650000     19.2643948     18.9313717     19.6449947  # C8   CH3_sp3_Me
   68   1   2 -0.7000000     18.3162956     19.9236469     19.9100533  # O3   O_MeOH    
   69   1   3  0.4350000     17.8813267     19.8386917     20.6916389  # H5   H_MeOH    
   70   1   1  0.2650000     32.0212364     15.0132465     13.9292212  # C8   CH3_sp3_Me
   71   1   2 -0.7000000     30.6245766     14.8467350     14.1467056  # O3   O_MeOH    
   72   1   3  0.4350000     30.4002953     15.7506561     14.1433077  # H5   H_MeOH    
   73   1   1  0.2650000     15.6011362     30.5396214     13.0558844  # C8   CH3_sp3_Me
   74   1   2 -0.7000000     14.4797287     31.0901299     13.7355232  # O3   O_MeOH    
   75   1   3  0.4350000     13.8102837     31.3993683     13.1918125  # H5   H_MeOH    
   76   1   1  0.2650000     16.9604149      2.6098175      3.7210288  # C8   CH3_sp3_Me
   77   1   2 -0.7000000     16.5458355      2.6404011      2.3549526  # O3   O_MeOH    
   78   1   3  0.4350000     15.8186197      3.3234396      2.3549526  # H5   H_MeOH    
   79   1   1  0.2650000     12.1417685     26.8321857     23.9403191  # C8   CH3_sp3_Me
   80   1   2 -0.7000000     12.1689539     25.7107811     22.9650345  # O3   O_MeOH    
   81   1   3  0.4350000     11.5334902     25.0481319     23.1519356  # H5   H_MeOH    
   82   1   1  0.2650000     10.2013950     22.5776386     11.9820528  # C8   CH3_sp3_Me
   83   1   2 -0.7000000      8.8591070     22.3499603     11.4213505  # O3   O_MeOH    
   84   1   3  0.4350000      8.3765631     21.8470268     11.9752560  # H5   H_MeOH    
   85   1   1  0.2650000     15.0166454     20.5115356      0.1902992  # C8   CH3_sp3_Me
   86   1   2 -0.7000000     15.9171677     21.5106049      0.6626490  # O3   O_MeOH    
   87   1   3  0.4350000     15.9885302     22.3261738      0.0951496  # H5   H_MeOH    
   88   1   1  0.2650000     32.0790062     19.9746189     19.0163269  # C8   CH3_sp3_Me
   89   1   2 -0.7000000     31.4707298     18.9075832     19.7843189  # O3   O_MeOH    
   90   1   3  0.4350000     31.1003246     18.3978539     19.0740948  # H5   H_MeOH    
   91   1   1  0.2650000     13.7932930     19.6042156      3.3710144  # C8   CH3_sp3_Me
   92   1   2 -0.7000000     15.0914049     20.1955013      3.7754002  # O3   O_MeOH    
   93   1   3  0.4350000     15.1763601     20.2940483      4.6487374  # H5   H_MeOH    
   94   1   1  0.2650000      1.8758063     20.8071766     32.9013710  # C8   CH3_sp3_Me
   95   1   2 -0.7000000      3.0685744     20.5251255     32.1809540  # O3   O_MeOH    
   96   1   3  0.4350000      3.1331403     19.5736294     32.0144386  # H5   H_MeOH    
   97   1   1  0.2650000     30.2779598     14.9011059     -0.4791462  # C8   CH3_sp3_Me
   98   1   2 -0.7000000     31.4809227     15.2986956      0.1325298  # O3   O_MeOH    
   99   1   3  0.4350000     31.4367485     15.0166454      0.9616905  # H5   H_MeOH    
  100   1   1  0.2650000      5.3113861     24.4364548     27.5967808  # C8   CH3_sp3_Me
  101   1   2 -0.7000000      4.3836775     25.3471718     28.2594299  # O3   O_MeOH    
  102   1   3  0.4350000      4.8594260     25.8025303     28.9492645  # H5   H_MeOH    
  103   1   1  0.2650000     24.2801380     21.4902153     26.7200451  # C8   CH3_sp3_Me
  104   1   2 -0.7000000     25.1296883     21.4562340     27.8618393  # O3   O_MeOH    
  105   1   3  0.4350000     24.8680267     22.2174301     28.3545799  # H5   H_MeOH    
  106   1   1  0.2650000     34.9232979     29.7886200     31.2804298  # C8   CH3_sp3_Me
  107   1   2 -0.7000000     33.8528671     29.3094749     30.3663139  # O3   O_MeOH    
  108   1   3  0.4350000     33.1358452     29.9007607     30.3799057  # H5   H_MeOH    
  109   1   1  0.2650000     31.9192905     21.5411892      1.3864655  # C8   CH3_sp3_Me
  110   1   2 -0.7000000     31.1784840     20.8615494      0.3126344  # O3   O_MeOH    
  111   1   3  0.4350000     30.3595181     21.1945724      0.4587570  # H5   H_MeOH    
  112   1   1  0.2650000      9.5489416     23.4237919     28.5448780  # C8   CH3_sp3_Me
  113   1   2 -0.7000000      8.3323860     22.8596897     28.8541145  # O3   O_MeOH    
  114   1   3  0.4350000      7.8498421     23.5903034     29.0817928  # H5   H_MeOH    
  115   1   1  0.2650000     15.5467644     17.3546066     32.9013710  # C8   CH3_sp3_Me
  116   1   2 -0.7000000     14.7277985     18.2857132     32.3304710  # O3   O_MeOH    
  117   1   3  0.4350000     15.2681112     19.0435123     31.9940510  # H5   H_MeOH    
  118   1   1  0.2650000      4.8152490     12.4170218      9.1343613  # C8   CH3_sp3_Me
  119   1   2 -0.7000000      5.2638116     12.1587591     10.4426680  # O3   O_MeOH    
  120   1   3  0.4350000      5.0905037     12.9029646     11.0713348  # H5   H_MeOH    
  121   1   1  0.2650000     12.7840271     22.7747345     27.1923943  # C8   CH3_sp3_Me
  122   1   2 -0.7000000     13.6131878     22.7339573     26.0166187  # O3   O_MeOH    
  123   1   3  0.4350000     14.4593401     22.9820251     26.3122616  # H5   H_MeOH    
  124   1   1  0.2650000     27.9841747     21.2693310     11.2582359  # C8   CH3_sp3_Me
  125   1   2 -0.7000000     27.8856277     21.6397362     12.6243124  # O3   O_MeOH    
  126   1   3  0.4350000     28.6774101     21.8232384     13.0219011  # H5   H_MeOH    
  127   1   1  0.2650000      6.8643641     10.2897491     28.0997143  # C8   CH3_sp3_Me
  128   1   2 -0.7000000      6.6570735     10.9252129     26.8287868  # O3   O_MeOH    
  129   1   3  0.4350000      7.4284649     10.6975327     26.2782784  # H5   H_MeOH    
  130   1   1  0.2650000     13.8306732     13.9020357     14.2010775  # C8   CH3_sp3_Me
  131   1   2 -0.7000000     14.1704931     14.9860620     15.0812111  # O3   O_MeOH    
  132   1   3  0.4350000     14.6530380     15.6453114     14.6598339  # H5   H_MeOH    
  133   1   1  0.2650000     19.7095585     14.1942806     12.8927708  # C8   CH3_sp3_Me
  134   1   2 -0.7000000     20.2464733     14.9656725     13.9666014  # O3   O_MeOH    
  135   1   3  0.4350000     20.3586159     15.8220186     13.5486231  # H5   H_MeOH    
  136   1   1  0.2650000      8.7537632     11.9888496     22.9786263  # C8   CH3_sp3_Me
  137   1   2 -0.7000000      8.2474308     10.6193743     23.0431919  # O3   O_MeOH    
  138   1   3  0.4350000      7.9619823     10.4392700     22.1698570  # H5   H_MeOH    
  139   1   1  0.2650000     16.2094135     14.3845797     20.4605618  # C8   CH3_sp3_Me
  140   1   2 -0.7000000     17.5245152     14.6768246     20.1989002  # O3   O_MeOH    
  141   1   3  0.4350000     17.9017162     14.1195202     20.7935848  # H5   H_MeOH    
  142   1   1  0.2650000     13.1204491      3.8365674      0.7544004  # C8   CH3_sp3_Me
  143   1   2 -0.7000000     12.8010197      2.5112696      0.3432182  # O3   O_MeOH    
  144   1   3  0.4350000     13.5010481      2.3005812     -0.3500146  # H5   H_MeOH    
  145   1   1  0.2650000      5.4099340      5.0735121     11.5504808  # C8   CH3_sp3_Me
  146   1   2 -0.7000000      5.6274190      4.8730187     10.1334324  # O3   O_MeOH    
  147   1   3  0.4350000      4.7846656      5.0667162      9.7698240  # H5   H_MeOH    
  148   1   1  0.2650000     33.1664314     30.2201900      3.7618072  # C8   CH3_sp3_Me
  149   1   2 -0.7000000     33.7849007     29.1905384      3.0006104  # O3   O_MeOH    
  150   1   3  0.4350000     33.3465347     29.1123791      2.2122281  # H5   H_MeOH    
  151   1   1  0.2650000     32.2625084     30.5600109     20.5659046  # C8   CH3_sp3_Me
  152   1   2 -0.7000000     31.1445007     31.2804298     19.9950085  # O3   O_MeOH    
  153   1   3  0.4350000     30.5566139     30.6381702     19.6653824  # H5   H_MeOH    
  154   1   1  0.2650000      8.9644508      4.2375555     26.2341042  # C8   CH3_sp3_Me
  155   1   2 -0.7000000      8.3901558      3.4423764     25.2078476  # O3   O_MeOH    
  156   1   3  0.4350000      8.9984341      2.6234105     25.1738644  # H5   H_MeOH    
  157   1   1  0.2650000     33.4586754     33.7339287     17.1846962  # C8   CH3_sp3_Me
  158   1   2 -0.7000000     32.9625397     33.9887962     15.8458061  # O3   O_MeOH    
  159   1   3  0.4350000     33.7475204     34.0465622     15.2307310  # H5   H_MeOH    
  160   1   1  0.2650000     21.1062202     10.7892847      7.8260541  # C8   CH3_sp3_Me
  161   1   2 -0.7000000     21.5275955      9.4673853      7.5304108  # O3   O_MeOH    
  162   1   3  0.4350000     22.0849018      9.1343613      8.2610235  # H5   H_MeOH    
  163   1   1  0.2650000     32.9047699     18.0104580      2.9326465  # C8   CH3_sp3_Me
  164   1   2 -0.7000000     32.8503990     17.1201305      4.0676451  # O3   O_MeOH    
  165   1   3  0.4350000     31.9770603     17.0589619      4.4244561  # H5   H_MeOH    
  166   1   1  0.2650000      8.5192871     10.3679075     11.2786255  # C8   CH3_sp3_Me
  167   1   2 -0.7000000      7.6017733      9.4639864     10.6941347  # O3   O_MeOH    
  168   1   3  0.4350000      6.8065939      9.3484478     11.2140598  # H5   H_MeOH    
  169   1   1  0.2650000      3.5409241     14.0243702     30.2949524  # C8   CH3_sp3_Me
  170   1   2 -0.7000000      2.9734249     14.4151640     31.5488873  # O3   O_MeOH    
  171   1   3  0.4350000      3.2690682     15.2613153     31.7154007  # H5   H_MeOH    
  172   1   1  0.2650000     18.2211475     19.1624489     31.9090977  # C8   CH3_sp3_Me
  173   1   2 -0.7000000     17.4293671     20.2804585     32.2896957  # O3   O_MeOH    
  174   1   3  0.4350000     17.2526608     20.3925972     33.2853661  # H5   H_MeOH    
  175   1   1  0.2650000     22.8325043     23.6344795      6.6536756  # C8   CH3_sp3_Me
  176   1   2 -0.7000000     22.5708427     22.4383144      5.9842300  # O3   O_MeOH    
  177   1   3  0.4350000     22.0984936     22.5980301      5.1720600  # H5   H_MeOH    
  178   1   1  0.2650000      8.6756039     23.9776993     24.6981182  # C8   CH3_sp3_Me
  179   1   2 -0.7000000     10.0484772     23.5970993     24.3447037  # O3   O_MeOH    
  180   1   3  0.4350000      9.9771147     23.5495262     23.4034023  # H5   H_MeOH    
  181   1   1  0.2650000      1.2675287      4.9579735     16.1448479  # C8   CH3_sp3_Me
  182   1   2 -0.7000000      0.8359571      3.6496665     16.1550426  # O3   O_MeOH    
  183   1   3  0.4350000      0.9175140      3.3574216     15.2681112  # H5   H_MeOH    
  184   1   1  0.2650000     32.2149353     12.2471123     -0.4655534  # C8   CH3_sp3_Me
  185   1   2 -0.7000000     31.1207142     12.4408102      0.5097300  # O3   O_MeOH    
  186   1   3  0.4350000     30.6891441     13.2427845      0.2650596  # H5   H_MeOH    
  187   1   1  0.2650000     28.6740112     11.9548664     27.0870514  # C8   CH3_sp3_Me
  188   1   2 -0.7000000     28.4191456     12.8553905     26.0370083  # O3   O_MeOH    
  189   1   3  0.4350000     29.2211208     12.7058687     25.4355259  # H5   H_MeOH    
  190   1   1  0.2650000     27.1855984     20.5183315     26.4176064  # C8   CH3_sp3_Me
  191   1   2 -0.7000000     28.4327393     20.7460098     25.8161240  # O3   O_MeOH    
  192   1   3  0.4350000     29.1123791     20.3722076     26.4345951  # H5   H_MeOH    
  193   1   1  0.2650000     27.8652382      4.4142613     24.7626820  # C8   CH3_sp3_Me
  194   1   2 -0.7000000     27.0224857      4.7608781     25.8569031  # O3   O_MeOH    
  195   1   3  0.4350000     26.6214981      5.6308174     25.6564083  # H5   H_MeOH    
  196   1   1  0.2650000     21.7586727      8.3731642     29.7614346  # C8   CH3_sp3_Me
  197   1   2 -0.7000000     22.7883282      9.2668915     30.2949524  # O3   O_MeOH    
  198   1   3  0.4350000     22.7781334     10.1504230     29.8803711  # H5   H_MeOH    
  199   1   1  0.2650000      1.4646242      4.4210577      0.2174848  # C8   CH3_sp3_Me
  200   1   2 -0.7000000      1.9097884      4.0880346      1.5563755  # O3   O_MeOH    
  201   1   3  0.4350000      2.8307006      4.0302653      1.6583215  # H5   H_MeOH    
  202   1   1  0.2650000     -0.1869010     32.5887375      1.9267793  # C8   CH3_sp3_Me
  203   1   2 -0.7000000      0.9582924     32.3610573      1.1044149  # O3   O_MeOH    
  204   1   3  0.4350000      1.5597737     33.0305023      1.2573340  # H5   H_MeOH    
  205   1   1  0.2650000     16.2807751     15.2681112      3.4763587  # C8   CH3_sp3_Me
  206   1   2 -0.7000000     15.5229778     16.4235001      3.2418826  # O3   O_MeOH    
  207   1   3  0.4350000     15.4244289     16.8482742      4.0438581  # H5   H_MeOH    
  208   1   1  0.2650000     13.7015419     33.6761589     30.6755505  # C8   CH3_sp3_Me
  209   1   2 -0.7000000     12.3966331     34.0703506     30.4070930  # O3   O_MeOH    
  210   1   3  0.4350000     11.8903017     33.3261452     30.6075859  # H5   H_MeOH    
  211   1   1  0.2650000     13.0049105      1.8010459     17.3376160  # C8   CH3_sp3_Me
  212   1   2 -0.7000000     11.9684601      0.9616905     17.7420006  # O3   O_MeOH    
  213   1   3  0.4350000     11.8903017      0.9548942     18.6595154  # H5   H_MeOH    
  214   1   1  0.2650000      4.8730187     10.3815002     24.7354984  # C8   CH3_sp3_Me
  215   1   2 -0.7000000      4.2919269      9.1547508     24.2767391  # O3   O_MeOH    
  216   1   3  0.4350000      4.6419411      9.0222206     23.4000034  # H5   H_MeOH    
  217   1   1  0.2650000     23.2470837      4.6861172     26.9817085  # C8   CH3_sp3_Me
  218   1   2 -0.7000000     22.4621010      5.0361323     25.8976803  # O3   O_MeOH    
  219   1   3  0.4350000     21.6091537      5.2230330     26.1831303  # H5   H_MeOH    
  220   1   1  0.2650000      4.6929140     13.0898657     17.3681984  # C8   CH3_sp3_Me
  221   1   2 -0.7000000      4.7200994     14.4661369     17.6944256  # O3   O_MeOH    
  222   1   3  0.4350000      3.7618072     14.7176027     17.7895775  # H5   H_MeOH    
  223   1   1  0.2650000     13.1714230     27.8482494      8.2066526  # C8   CH3_sp3_Me
  224   1   2 -0.7000000     12.5393572     28.2560310      9.3756332  # O3   O_MeOH    
  225   1   3  0.4350000     12.1349716     29.1225719      9.2125206  # H5   H_MeOH    
  226   1   1  0.2650000      8.5396767     29.6628876      8.7333736  # C8   CH3_sp3_Me
  227   1   2 -0.7000000      9.4775791     30.3493233      7.9246020  # O3   O_MeOH    
  228   1   3  0.4350000      9.0324154     31.0901299      7.4760394  # H5   H_MeOH    
  229   1   1  0.2650000     11.8427267     21.7009048      5.0837069  # C8   CH3_sp3_Me
  230   1   2 -0.7000000     12.2641039     22.8223095      5.8177185  # O3   O_MeOH    
  231   1   3  0.4350000     12.9981146     23.0635815      5.3215809  # H5   H_MeOH    
  232   1   1  0.2650000     19.7265511     30.1998024     34.3252182  # C8   CH3_sp3_Me
  233   1   2 -0.7000000     20.7324162     31.1852798     34.2470589  # O3   O_MeOH    
  234   1   3  0.4350000     21.0144672     31.1275101     33.3533325  # H5   H_MeOH    
  235   1   1  0.2650000     22.6218166      4.4244561      9.9635210  # C8   CH3_sp3_Me
  236   1   2 -0.7000000     22.2718010      4.3836775     11.3465891  # O3   O_MeOH    
  237   1   3  0.4350000     22.0543175      5.3181825     11.5538797  # H5   H_MeOH    
  238   1   1  0.2650000     25.2282352     12.2437143     22.9242573  # C8   CH3_sp3_Me
  239   1   2 -0.7000000     26.4244022     13.0354948     23.0975647  # O3   O_MeOH    
  240   1   3  0.4350000     27.0428734     12.4374113     23.4713669  # H5   H_MeOH    
  241   1   1  0.2650000     30.1692181     32.7960281     17.7012234  # C8   CH3_sp3_Me
  242   1   2 -0.7000000     29.4012241     33.8698578     17.1507149  # O3   O_MeOH    
  243   1   3  0.4350000     29.9653263     34.4475517     16.8074970  # H5   H_MeOH    
  244   1   1  0.2650000     19.9746189     35.0490303     15.4584112  # C8   CH3_sp3_Me
  245   1   2 -0.7000000     20.2090931     33.6897545     15.1355820  # O3   O_MeOH    
  246   1   3  0.4350000     19.4445000     33.1562347     15.4754019  # H5   H_MeOH    
  247   1   1  0.2650000     12.8112135      3.9690976      4.9171953  # C8   CH3_sp3_Me
  248   1   2 -0.7000000     12.6582947      3.8535585      3.5477207  # O3   O_MeOH    
  249   1   3  0.4350000     12.1247768      4.5739770      3.2316880  # H5   H_MeOH    
  250   1   1  0.2650000      1.9403722      1.5665702     33.3873138  # C8   CH3_sp3_Me
  251   1   2 -0.7000000      3.1705205      1.9743541     34.0363693  # O3   O_MeOH    
  252   1   3  0.4350000      3.3642178      2.8782754     33.7373276  # H5   H_MeOH    
  253   1   1  0.2650000     20.6168785     26.9749107     25.8297176  # C8   CH3_sp3_Me
  254   1   2 -0.7000000     20.5115356     28.3307915     25.4151363  # O3   O_MeOH    
  255   1   3  0.4350000     20.7256203     28.4701195     24.4704361  # H5   H_MeOH    
  256   1   1  0.2650000     27.8550434      9.4266062     25.4423237  # C8   CH3_sp3_Me
  257   1   2 -0.7000000     27.8584423      8.1488838     24.8850174  # O3   O_MeOH    
  258   1   3  0.4350000     28.7215843      7.8736291     24.7898674  # H5   H_MeOH    
  259   1   1  0.2650000     12.3320665     29.4454021     29.5779324  # C8   CH3_sp3_Me
  260   1   2 -0.7000000     12.5869322     30.7469120     30.2133961  # O3   O_MeOH    
  261   1   3  0.4350000     13.2937584     30.6619568     30.8454609  # H5   H_MeOH    
  262   1   1  0.2650000     26.3598347     11.5742693      9.1785374  # C8   CH3_sp3_Me
  263   1   2 -0.7000000     27.6953278     11.3567839      8.9746456  # O3   O_MeOH    
  264   1   3  0.4350000     28.1608829     12.1859446      8.8251247  # H5   H_MeOH    
  265   1   1  0.2650000      1.0874240      3.8637533     19.4886761  # C8   CH3_sp3_Me
  266   1   2 -0.7000000     -0.1970956      4.4380493     19.2677917  # O3   O_MeOH    
  267   1   3  0.4350000     -0.3058380      5.0259376     18.5167904  # H5   H_MeOH    
  268   1   1  0.2650000     22.1188831     26.8219929      5.9366555  # C8   CH3_sp3_Me
  269   1   2 -0.7000000     21.3916664     26.4244022      7.0546627  # O3   O_MeOH    
  270   1   3  0.4350000     20.4163837     26.5739231      6.9289293  # H5   H_MeOH    
  271   1   1  0.2650000     31.5183048      0.8937266      3.7889929  # C8   CH3_sp3_Me
  272   1   2 -0.7000000     32.8877792      0.8291607      4.3564920  # O3   O_MeOH    
  273   1   3  0.4350000     32.8775826      1.4850132      5.0769105  # H5   H_MeOH    
  274   1   1  0.2650000     12.5869322     -0.4621552      1.4204475  # C8   CH3_sp3_Me
  275   1   2 -0.7000000     12.2641039      0.5776940      2.2937851  # O3   O_MeOH    
  276   1   3  0.4350000     11.8563185      1.2811214      1.7092944  # H5   H_MeOH    
  277   1   1  0.2650000     19.6483917     20.5115356      1.1587862  # C8   CH3_sp3_Me
  278   1   2 -0.7000000     20.5115356     21.1402016      2.0966895  # O3   O_MeOH    
  279   1   3  0.4350000     20.0901566     20.8547516      2.9156554  # H5   H_MeOH    
  280   1   1  0.2650000     10.4936419      7.1226268      6.9323277  # C8   CH3_sp3_Me
  281   1   2 -0.7000000     10.4732523      5.7599487      6.4124031  # O3   O_MeOH    
  282   1   3  0.4350000     10.7824879      5.2026439      7.0750518  # H5   H_MeOH    
  283   1   1  0.2650000     16.0632915     18.1633778     15.5603571  # C8   CH3_sp3_Me
  284   1   2 -0.7000000     15.6894884     16.8074970     15.7302675  # O3   O_MeOH    
  285   1   3  0.4350000     14.9690704     16.6239929     16.3793240  # H5   H_MeOH    
  286   1   1  0.2650000     34.0057869     18.7308769     31.7867622  # C8   CH3_sp3_Me
  287   1   2 -0.7000000     32.8470001     18.0104580     32.0925980  # O3   O_MeOH    
  288   1   3  0.4350000     32.0892029     18.5167904     32.0824051  # H5   H_MeOH    
  289   1   1  0.2650000     29.1429615     27.3894901      9.6304979  # C8   CH3_sp3_Me
  290   1   2 -0.7000000     28.2968102     27.8346558     10.7111263  # O3   O_MeOH    
  291   1   3  0.4350000     27.3691025     27.8482494     10.4290752  # H5   H_MeOH    
  292   1   1  0.2650000     29.0342178     11.4247475      4.6691265  # C8   CH3_sp3_Me
  293   1   2 -0.7000000     28.3817654     10.5276232      5.5084820  # O3   O_MeOH    
  294   1   3  0.4350000     27.9943714      9.9091501      4.9137969  # H5   H_MeOH    
  295   1   1  0.2650000     11.6898079     26.1083698     26.6860638  # C8   CH3_sp3_Me
  296   1   2 -0.7000000     11.9786539     25.7685490     28.0419464  # O3   O_MeOH    
  297   1   3  0.4350000     12.6684885     25.0141506     28.1302967  # H5   H_MeOH    
  298   1   1  0.2650000     24.7898674     29.3366604     29.7444420  # C8   CH3_sp3_Me
  299   1   2 -0.7000000     25.3845520     30.0027065     28.6298332  # O3   O_MeOH    
  300   1   3  0.4350000     26.0234146     29.4250126     28.2628288  # H5   H_MeOH    
  301   1   1  0.2650000     30.8488579     29.8056107      1.5088007  # C8   CH3_sp3_Me
  302   1   2 -0.7000000     30.0027065     29.7988148      2.7253563  # O3   O_MeOH    
  303   1   3  0.4350000     30.4886494     30.1284409      3.4695621  # H5   H_MeOH    
  304   1   1  0.2650000     25.2826080     10.0926533     13.4534731  # C8   CH3_sp3_Me
  305   1   2 -0.7000000     24.0184765     10.4154825     12.8044167  # O3   O_MeOH    
  306   1   3  0.4350000     23.9471149      9.9737167     11.9786539  # H5   H_MeOH    
  307   1   1  0.2650000     21.4460392      8.1862631     25.9928322  # C8   CH3_sp3_Me
  308   1   2 -0.7000000     21.3950653      7.6935244     24.6165600  # O3   O_MeOH    
  309   1   3  0.4350000     20.6406651      7.1837945     24.4976234  # H5   H_MeOH    
  310   1   1  0.2650000     13.3447304     15.4550133     18.7682571  # C8   CH3_sp3_Me
  311   1   2 -0.7000000     14.0515566     14.4083672     19.2813854  # O3   O_MeOH    
  312   1   3  0.4350000     14.7413912     14.1331129     18.6221352  # H5   H_MeOH    
  313   1   1  0.2650000     18.5915508      3.7821963     20.2770596  # C8   CH3_sp3_Me
  314   1   2 -0.7000000     19.4003239      2.6336050     20.0221939  # O3   O_MeOH    
  315   1   3  0.4350000     20.1615200      2.7083652     20.5523129  # H5   H_MeOH    
  316   1   1  0.2650000     28.0351486      3.9555047      5.3011918  # C8   CH3_sp3_Me
  317   1   2 -0.7000000     26.5535336      3.9589028      5.3963413  # O3   O_MeOH    
  318   1   3  0.4350000     26.2171116      4.6385427      4.8424349  # H5   H_MeOH    
  319   1   1  0.2650000     12.9709291      6.6196933      9.6882687  # C8   CH3_sp3_Me
  320   1   2 -0.7000000     13.0660782      7.9959645      9.6406927  # O3   O_MeOH    
  321   1   3  0.4350000     13.7830992      8.3052006     10.2149887  # H5   H_MeOH    
  322   1   1  0.2650000     13.2903595     29.9143524     20.7324162  # C8   CH3_sp3_Me
  323   1   2 -0.7000000     13.9224253     31.1377048     20.1139450  # O3   O_MeOH    
  324   1   3  0.4350000     13.3413324     31.8513279     20.4299774  # H5   H_MeOH    
  325   1   1  0.2650000     28.8235321      7.4080753     11.9174862  # C8   CH3_sp3_Me
  326   1   2 -0.7000000     28.0793266      8.3119965     11.0985203  # O3   O_MeOH    
  327   1   3  0.4350000     28.2458382      9.1343613     11.3601828  # H5   H_MeOH    
  328   1   1  0.2650000     12.9131594     18.2823143     16.9638138  # C8   CH3_sp3_Me