Created on 23  1 2020 22:30:29 using cif2lammps
  
        1600  atoms
        1920  bonds
        3840  angles
        6400  dihedrals
        1920  impropers
  
           8  atom types
           8  bond types
          11  angle types
          14  dihedral types
           6  improper types
  
   0.00000000       23.2520008      xlo xhi
   0.00000000       23.2520008      ylo yhi
   0.00000000       25.2919998      zlo zhi
  
Masses
  
   1     64.3720551  # Zn  
   2     12.0107002  # C4  
   3     12.9987593  # N1  
   4     12.0107002  # C2  
   5      1.0079401  # H4  
   6      1.0079401  # H2  
   7      1.0079401  # He  
   8      1.0079401  # Ne  
  
Bond Coeffs
  
   1   23.4144001      0.899999976      # harmonic    # Zn  He  
   2   16.0323601       1.08800006      # harmonic    # C4  H4  
   3   14.6235933       1.35500002      # harmonic    # C4  N1  
   4   12.5592232       1.38600004      # harmonic    # N1  C2  
   5   23.4144001      0.500000000      # harmonic    # N1  Ne  
   6   17.4445953       1.37699997      # harmonic    # C2  C2  
   7   16.0323601       1.08800006      # harmonic    # C2  H2  
   8   23.4144001       1.47000003      # harmonic    # He  He  
  
Angle Coeffs
  
   1   2.3848000    109.5000000      0.0000000      0.0000000  # charmm      # He  Zn  He  
   2   1.6940751    124.1969986      0.8858448      2.1600001  # charmm      # H4  C4  N1  
   3   1.4022623    111.1689987      4.6555634      2.2360001  # charmm      # N1  C4  N1  
   4   2.0088689    106.2519989      4.8411441      2.1930001  # charmm      # C2  N1  C4  
   5   0.4925696    126.9499969      0.0000000      0.0000000  # charmm      # C2  N1  Ne  
   6   0.6256848    126.8499985      0.0000000      0.0000000  # charmm      # C4  N1  Ne  
   7   1.4560288    107.9950027      4.2948079      2.2349999  # charmm      # N1  C2  C2  
   8   1.3693087    121.3170013      0.8858448      2.1600001  # charmm      # N1  C2  H2  
   9   1.5175999    130.0339966      0.6408608      2.2360001  # charmm      # C2  C2  H2  
  10   2.3848000     35.2500000      0.0000000      0.0000000  # charmm      # Zn  He  He  
  11   2.3848000     60.0000000      0.0000000      0.0000000  # charmm      # He  He  He  
  
Dihedral Coeffs
  
   1   0.0000000   2  53      0.0000000 # charmm      # Zn  He  He  He  
   2   0.2879104   2 180      0.0000000 # charmm      # C4  N1  C2  C2  
   3   0.1582640   2 180      0.0000000 # charmm      # C4  N1  C2  H2  
   4   0.6647088   2 180      0.0000000 # charmm      # N1  C2  C2  N1  
   5   0.1539280   2 180      0.0000000 # charmm      # N1  C2  C2  H2  
   6   0.4669872   2 180      0.0000000 # charmm      # N1  C4  N1  C2  
   7   0.0266230   2 180      0.0000000 # charmm      # N1  C4  N1  Ne  
   8   0.1578304   2 180      0.0000000 # charmm      # C2  N1  C4  H4  
   9   0.0613978   2 180      0.0000000 # charmm      # C2  C2  N1  Ne  
  10   0.0098427   2 180      0.0000000 # charmm      # H4  C4  N1  Ne  
  11   0.0457882   2 180      0.0000000 # charmm      # H2  C2  N1  Ne  
  12   0.0147424   2 180      0.0000000 # charmm      # H2  C2  C2  H2  
  13   0.0000000   2 120      0.0000000 # charmm      # He  Zn  He  He  
  14   0.0000000   2  70      0.0000000 # charmm      # He  He  He  He  
  
Improper Coeffs
  
   1   0.0000000  -1   2 # cvff      # Zn  He  He  He  
   2   0.1517600  -1   2 # cvff      # C4  H4  N1  N1  
   3   0.1517600  -1   2 # cvff      # N1  C2  C4  Ne  
   4   0.0000000  -1   2 # cvff      # C2  N1  C2  H2  
   5   0.0000000  -1   2 # cvff      # He  Zn  He  He  
   6   0.0000000  -1   2 # cvff      # He  He  He  He  
  
Atoms
  
    1   1   1  0.3536000      1.7509246     14.8259182      5.7639871  # Zn   Zn_c      
    2   1   1  0.3536000     15.5229177     21.0939465      0.2830762  # Zn   Zn_c      
    3   1   2  0.2770800     12.7860107     20.2599945      0.2400456  # C4   CC_aromati
    4   1   3  0.0000000     11.6889763     20.5530567     11.8969193  # N1   N_c_aromat
    5   1   3  0.0000000     13.9719200     20.5390434     11.9779634  # N1   N_c_aromat
    6   1   4 -0.0662000     12.1890640     20.9199181     10.6609936  # C2   CH_aromati
    7   1   4 -0.0662000     13.5649681     20.9080315     10.7059536  # C2   CH_aromati
    8   1   5  0.1141000     12.7439671     19.9550457      1.2720097  # H4   HC_aromati
    9   1   6  0.1141000     14.2839651     21.1409569      9.9200163  # H2   HC_aromati
   10   1   6  0.1141000     11.5280762     21.1640186      9.8279734  # H2   HC_aromati
   11   1   2  0.2770800      6.6849146     10.2889462      5.3769040  # C4   CC_aromati
   12   1   3  0.0000000      7.0870776      9.8640766      3.9559271  # N1   N_c_aromat
   13   1   3  0.0000000      5.4340763      9.4750414      5.5059962  # N1   N_c_aromat
   14   1   4 -0.0662000      6.1759577      8.9570370      3.4420676  # C2   CH_aromati
   15   1   4 -0.0662000      5.1880245      8.7239351      4.3700252  # C2   CH_aromati
   16   1   5  0.1141000      7.1619391     10.9630613      6.0679035  # H4   HC_aromati
   17   1   6  0.1141000      4.3249798      8.0590448      4.2999797  # H2   HC_aromati
   18   1   6  0.1141000      6.2900252      8.5170879      2.4510114  # H2   HC_aromati
   19   1   2  0.2770800     14.7560225     21.1180725      3.2199676  # C4   CC_aromati
   20   1   3  0.0000000     14.0189314     19.9970894      3.9559271  # N1   N_c_aromat
   21   1   3  0.0000000     15.2119379     20.3199558      2.0210907  # N1   N_c_aromat
   22   1   4 -0.0662000     14.0930843     18.8060341      3.2529643  # C2   CH_aromati
   23   1   4 -0.0662000     14.8120804     18.9969158      2.0969250  # C2   CH_aromati
   24   1   5  0.1141000     14.9020224     22.1519508      3.4750643  # H4   HC_aromati
   25   1   6  0.1141000     15.0700188     18.2779198      1.3200575  # H2   HC_aromati
   26   1   6  0.1141000     13.6279449     17.8920765      3.6240315  # H2   HC_aromati
   27   1   2  0.2770800      2.2300787     11.7959480      6.2670407  # C4   CC_aromati
   28   1   3  0.0000000      3.4129732     11.2539949      7.0639763  # N1   N_c_aromat
   29   1   3  0.0000000      2.4720504     13.2559395      6.4850883  # N1   N_c_aromat
   30   1   4 -0.0662000      4.1500645     12.2839718      7.6229892  # C2   CH_aromati
   31   1   4 -0.0662000      3.5850499     13.4890413      7.2739201  # C2   CH_aromati
   32   1   5  0.1141000      1.4580395     11.2800732      5.7190270  # H4   HC_aromati
   33   1   6  0.1141000      3.8919497     14.5000362      7.5419450  # H2   HC_aromati
   34   1   6  0.1141000      5.0269461     12.0909624      8.2429781  # H2   HC_aromati
   35   1   1  0.3536000      8.4269695     13.3769255      8.9260664  # Zn   Zn_c      
   36   1   1  0.3536000      2.1580546      3.8969169      3.4449620  # Zn   Zn_c      
   37   1   2  0.2770800      2.9930704      1.1600100      3.4019315  # C4   CC_aromati
   38   1   3  0.0000000      2.7000079      0.0629767      2.4129980  # N1   N_c_aromat
   39   1   3  0.0000000      2.7140226      2.3459203      2.4940419  # N1   N_c_aromat
   40   1   4 -0.0662000      2.3320832      0.5630635      1.1759144  # C2   CH_aromati
   41   1   4 -0.0662000      2.3439689      1.9389677      1.2220325  # C2   CH_aromati
   42   1   5  0.1141000      3.2969544      1.1179664      4.4340887  # H4   HC_aromati
   43   1   6  0.1141000      2.1110442      2.6579645      0.4349380  # H2   HC_aromati
   44   1   6  0.1141000      2.0879827     23.1540775      0.3440524  # H2   HC_aromati
   45   1   2  0.2770800     12.9630547     18.3109150      8.5389833  # C4   CC_aromati
   46   1   3  0.0000000     13.3889885     18.7130775      7.1170411  # N1   N_c_aromat
   47   1   3  0.0000000     13.7769594     17.0600777      8.6680746  # N1   N_c_aromat
   48   1   4 -0.0662000     14.2949638     17.8019581      6.6039534  # C2   CH_aromati
   49   1   4 -0.0662000     14.5280657     16.8140259      7.5319109  # C2   CH_aromati
   50   1   5  0.1141000     12.2889395     18.7879410      9.2290173  # H4   HC_aromati
   51   1   6  0.1141000     15.1929560     15.9509802      7.4610934  # H2   HC_aromati
   52   1   6  0.1141000     14.7349129     17.9160252      5.6119328  # H2   HC_aromati
   53   1   2  0.2770800      2.1349931      3.1300225      6.3810816  # C4   CC_aromati
   54   1   3  0.0000000      3.2550883      2.3929310      7.1170411  # N1   N_c_aromat
   55   1   3  0.0000000      2.9320452      3.5850501      5.1820116  # N1   N_c_aromat
   56   1   4 -0.0662000      4.4459653      2.4670835      6.4140782  # C2   CH_aromati
   57   1   4 -0.0662000      4.2550850      3.1860805      5.2580390  # C2   CH_aromati
   58   1   5  0.1141000      1.1000491      3.2760215      6.6369500  # H4   HC_aromati
   59   1   6  0.1141000      4.9740820      3.4440181      4.4819431  # H2   HC_aromati
   60   1   6  0.1141000      5.3599234      2.0019443      6.7859173  # H2   HC_aromati
   61   1   2  0.2770800     11.4560528     13.8560791      9.4289265  # C4   CC_aromati
   62   1   3  0.0000000     11.9980059     15.0389738     10.2260551  # N1   N_c_aromat
   63   1   3  0.0000000      9.9960613     14.0980511      9.6460094  # N1   N_c_aromat
   64   1   4 -0.0662000     10.9680290     15.7769527     10.7850685  # C2   CH_aromati
   65   1   4 -0.0662000      9.7640238     15.2119379     10.4350338  # C2   CH_aromati
   66   1   5  0.1141000     11.9729919     13.0840406      8.8799477  # H4   HC_aromati
   67   1   6  0.1141000      8.7519646     15.5179501     10.7040243  # H2   HC_aromati
   68   1   6  0.1141000     11.1610374     16.6529465     11.4040928  # H2   HC_aromati
   69   1   1  0.3536000     21.5010757      8.4269695      5.7639871  # Zn   Zn_c      
   70   1   1  0.3536000      7.7290835      2.1580548      0.2830762  # Zn   Zn_c      
   71   1   2  0.2770800     10.4659901      2.9930706      0.2400456  # C4   CC_aromati
   72   1   3  0.0000000     11.5630226      2.7000079     11.8969193  # N1   N_c_aromat
   73   1   3  0.0000000      9.2800789      2.7140226     11.9779634  # N1   N_c_aromat
   74   1   4 -0.0662000     11.0629368      2.3320832     10.6609936  # C2   CH_aromati
   75   1   4 -0.0662000      9.6870327      2.3439689     10.7059536  # C2   CH_aromati
   76   1   5  0.1141000     10.5080338      3.2969546      1.2720097  # H4   HC_aromati
   77   1   6  0.1141000      8.9680357      2.1110442      9.9200163  # H2   HC_aromati
   78   1   6  0.1141000     11.7239246      2.0879827      9.8279734  # H2   HC_aromati
   79   1   2  0.2770800     16.5670853     12.9630547      5.3769040  # C4   CC_aromati
   80   1   3  0.0000000     16.1649227     13.3889885      3.9559271  # N1   N_c_aromat
   81   1   3  0.0000000     17.8179245     13.7769594      5.5059962  # N1   N_c_aromat
   82   1   4 -0.0662000     17.0760422     14.2949638      3.4420676  # C2   CH_aromati
   83   1   4 -0.0662000     18.0650406     14.5280657      4.3700252  # C2   CH_aromati
   84   1   5  0.1141000     16.0900612     12.2889395      6.0679035  # H4   HC_aromati
   85   1   6  0.1141000     18.9270210     15.1929560      4.2999797  # H2   HC_aromati
   86   1   6  0.1141000     16.9619751     14.7349129      2.4510114  # H2   HC_aromati
   87   1   2  0.2770800      8.4959784      2.1349933      3.2199676  # C4   CC_aromati
   88   1   3  0.0000000      9.2330694      3.2550886      3.9559271  # N1   N_c_aromat
   89   1   3  0.0000000      8.0409508      2.9320455      2.0210907  # N1   N_c_aromat
   90   1   4 -0.0662000      9.1589165      4.4459658      3.2529643  # C2   CH_aromati
   91   1   4 -0.0662000      8.4409847      4.2550850      2.0969250  # C2   CH_aromati
   92   1   5  0.1141000      8.3499784      1.1000494      3.4750643  # H4   HC_aromati
   93   1   6  0.1141000      8.1819820      4.9740820      1.3200575  # H2   HC_aromati
   94   1   6  0.1141000      9.6240559      5.3599238      3.6240315  # H2   HC_aromati
   95   1   2  0.2770800     21.0219212     11.4560528      6.2670407  # C4   CC_aromati
   96   1   3  0.0000000     19.8390274     11.9980059      7.0639763  # N1   N_c_aromat
   97   1   3  0.0000000     20.7799492      9.9960613      6.4850883  # N1   N_c_aromat
   98   1   4 -0.0662000     19.1019363     10.9680290      7.6229892  # C2   CH_aromati
   99   1   4 -0.0662000     19.6669502      9.7640238      7.2739201  # C2   CH_aromati
  100   1   5  0.1141000     21.7939606     11.9729919      5.7190270  # H4   HC_aromati
  101   1   6  0.1141000     19.3600502      8.7519646      7.5419450  # H2   HC_aromati
  102   1   6  0.1141000     18.2250538     11.1610384      8.2429781  # H2   HC_aromati
  103   1   1  0.3536000     14.8259182      9.8750753      8.9260664  # Zn   Zn_c      
  104   1   1  0.3536000     21.0939465     19.3550835      3.4449620  # Zn   Zn_c      
  105   1   2  0.2770800     20.2599945     22.0919914      3.4019315  # C4   CC_aromati
  106   1   3  0.0000000     20.5530567     23.1890240      2.4129980  # N1   N_c_aromat
  107   1   3  0.0000000     20.5390434     20.9060802      2.4940419  # N1   N_c_aromat
  108   1   4 -0.0662000     20.9199181     22.6889381      1.1759144  # C2   CH_aromati
  109   1   4 -0.0662000     20.9080315     21.3130341      1.2220325  # C2   CH_aromati
  110   1   5  0.1141000     19.9550457     22.1340351      4.4340887  # H4   HC_aromati
  111   1   6  0.1141000     21.1409569     20.5940361      0.4349380  # H2   HC_aromati
  112   1   6  0.1141000     21.1640186      0.0979242      0.3440524  # H2   HC_aromati
  113   1   2  0.2770800     10.2889462      4.9410858      8.5389833  # C4   CC_aromati
  114   1   3  0.0000000      9.8640766      4.5389228      7.1170411  # N1   N_c_aromat
  115   1   3  0.0000000      9.4750414      6.1919236      8.6680746  # N1   N_c_aromat
  116   1   4 -0.0662000      8.9570370      5.4500427      6.6039534  # C2   CH_aromati
  117   1   4 -0.0662000      8.7239351      6.4390402      7.5319109  # C2   CH_aromati
  118   1   5  0.1141000     10.9630613      4.4640608      9.2290173  # H4   HC_aromati
  119   1   6  0.1141000      8.0590448      7.3010206      7.4610934  # H2   HC_aromati
  120   1   6  0.1141000      8.5170879      5.3359752      5.6119328  # H2   HC_aromati
  121   1   2  0.2770800     21.1180725     20.1219788      6.3810816  # C4   CC_aromati
  122   1   3  0.0000000     19.9970894     20.8590698      7.1170411  # N1   N_c_aromat
  123   1   3  0.0000000     20.3199558     19.6669502      5.1820116  # N1   N_c_aromat
  124   1   4 -0.0662000     18.8060341     20.7849178      6.4140782  # C2   CH_aromati
  125   1   4 -0.0662000     18.9969158     20.0669842      5.2580390  # C2   CH_aromati
  126   1   5  0.1141000     22.1519508     19.9759789      6.6369500  # H4   HC_aromati
  127   1   6  0.1141000     18.2779198     19.8079834      4.4819431  # H2   HC_aromati
  128   1   6  0.1141000     17.8920765     21.2500572      6.7859173  # H2   HC_aromati
  129   1   2  0.2770800     11.7959480      9.3959217      9.4289265  # C4   CC_aromati
  130   1   3  0.0000000     11.2539949      8.2130270     10.2260551  # N1   N_c_aromat
  131   1   3  0.0000000     13.2559395      9.1539497      9.6460094  # N1   N_c_aromat
  132   1   4 -0.0662000     12.2839718      7.4759355     10.7850685  # C2   CH_aromati
  133   1   4 -0.0662000     13.4890413      8.0409508     10.4350338  # C2   CH_aromati
  134   1   5  0.1141000     11.2800732     10.1679602      8.8799477  # H4   HC_aromati
  135   1   6  0.1141000     14.5000362      7.7340508     10.7040243  # H2   HC_aromati
  136   1   6  0.1141000     12.0909615      6.5990539     11.4040928  # H2   HC_aromati
  137   1   1  0.3536000     21.5010757     14.8259182     12.0869875  # Zn   Zn_c      
  138   1   1  0.3536000      7.7290831     21.0939465      6.6060762  # Zn   Zn_c      
  139   1   2  0.2770800     10.4659901     20.2599945      6.5630455  # C4   CC_aromati
  140   1   3  0.0000000     11.5630236     20.5530567      5.5739188  # N1   N_c_aromat
  141   1   3  0.0000000      9.2800798     20.5390434      5.6549635  # N1   N_c_aromat
  142   1   4 -0.0662000     11.0629368     20.9199181      4.3379931  # C2   CH_aromati
  143   1   4 -0.0662000      9.6870327     20.9080315      4.3829536  # C2   CH_aromati
  144   1   5  0.1141000     10.5080338     19.9550457      7.5950098  # H4   HC_aromati
  145   1   6  0.1141000      8.9680357     21.1409569      3.5970166  # H2   HC_aromati
  146   1   6  0.1141000     11.7239246     21.1640186      3.5049734  # H2   HC_aromati
  147   1   2  0.2770800     16.5670853     10.2889462     11.6999044  # C4   CC_aromati
  148   1   3  0.0000000     16.1649227      9.8640766     10.2789268  # N1   N_c_aromat
  149   1   3  0.0000000     17.8179245      9.4750414     11.8289957  # N1   N_c_aromat
  150   1   4 -0.0662000     17.0760422      8.9570370      9.7650681  # C2   CH_aromati
  151   1   4 -0.0662000     18.0650406      8.7239351     10.6930246  # C2   CH_aromati
  152   1   5  0.1141000     16.0900612     10.9630613     12.3909035  # H4   HC_aromati
  153   1   6  0.1141000     18.9270210      8.0590448     10.6229792  # H2   HC_aromati
  154   1   6  0.1141000     16.9619751      8.5170879      8.7740116  # H2   HC_aromati
  155   1   2  0.2770800      8.4959784     21.1180725      9.5429678  # C4   CC_aromati
  156   1   3  0.0000000      9.2330694     19.9970894     10.2789268  # N1   N_c_aromat
  157   1   3  0.0000000      8.0409508     20.3199558      8.3440905  # N1   N_c_aromat
  158   1   4 -0.0662000      9.1589165     18.8060341      9.5759640  # C2   CH_aromati
  159   1   4 -0.0662000      8.4409847     18.9969158      8.4199247  # C2   CH_aromati
  160   1   5  0.1141000      8.3499784     22.1519508      9.7980642  # H4   HC_aromati
  161   1   6  0.1141000      8.1819820     18.2779198      7.6430573  # H2   HC_aromati
  162   1   6  0.1141000      9.6240559     17.8920765      9.9470310  # H2   HC_aromati
  163   1   2  0.2770800     21.0219212     11.7959480     12.5900412  # C4   CC_aromati
  164   1   3  0.0000000     19.8390274     11.2539949      0.7409767  # N1   N_c_aromat
  165   1   3  0.0000000     20.7799492     13.2559395      0.1620886  # N1   N_c_aromat
  166   1   4 -0.0662000     19.1019363     12.2839718      1.2999893  # C2   CH_aromati
  167   1   4 -0.0662000     19.6669502     13.4890413      0.9509200  # C2   CH_aromati
  168   1   5  0.1141000     21.7939606     11.2800732     12.0420265  # H4   HC_aromati
  169   1   6  0.1141000     19.3600502     14.5000362      1.2189451  # H2   HC_aromati
  170   1   6  0.1141000     18.2250538     12.0909624      1.9199785  # H2   HC_aromati
  171   1   1  0.3536000      1.7509243      8.4269695     12.0869875  # Zn   Zn_c      
  172   1   1  0.3536000     15.5229177      2.1580548      6.6060762  # Zn   Zn_c      
  173   1   2  0.2770800     12.7860107      2.9930706      6.5630455  # C4   CC_aromati
  174   1   3  0.0000000     11.6889772      2.7000079      5.5739188  # N1   N_c_aromat
  175   1   3  0.0000000     13.9719210      2.7140226      5.6549635  # N1   N_c_aromat
  176   1   4 -0.0662000     12.1890640      2.3320832      4.3379931  # C2   CH_aromati
  177   1   4 -0.0662000     13.5649681      2.3439689      4.3829536  # C2   CH_aromati
  178   1   5  0.1141000     12.7439671      3.2969546      7.5950098  # H4   HC_aromati
  179   1   6  0.1141000     14.2839651      2.1110442      3.5970166  # H2   HC_aromati
  180   1   6  0.1141000     11.5280762      2.0879827      3.5049734  # H2   HC_aromati
  181   1   2  0.2770800      6.6849141     12.9630547     11.6999044  # C4   CC_aromati
  182   1   3  0.0000000      7.0870771     13.3889885     10.2789268  # N1   N_c_aromat
  183   1   3  0.0000000      5.4340763     13.7769594     11.8289957  # N1   N_c_aromat
  184   1   4 -0.0662000      6.1759572     14.2949638      9.7650681  # C2   CH_aromati
  185   1   4 -0.0662000      5.1880240     14.5280657     10.6930246  # C2   CH_aromati
  186   1   5  0.1141000      7.1619391     12.2889395     12.3909035  # H4   HC_aromati
  187   1   6  0.1141000      4.3249793     15.1929560     10.6229792  # H2   HC_aromati
  188   1   6  0.1141000      6.2900248     14.7349129      8.7740116  # H2   HC_aromati
  189   1   2  0.2770800     14.7560225      2.1349933      9.5429678  # C4   CC_aromati
  190   1   3  0.0000000     14.0189314      3.2550886     10.2789268  # N1   N_c_aromat
  191   1   3  0.0000000     15.2119379      2.9320455      8.3440905  # N1   N_c_aromat
  192   1   4 -0.0662000     14.0930843      4.4459658      9.5759640  # C2   CH_aromati
  193   1   4 -0.0662000     14.8120804      4.2550850      8.4199247  # C2   CH_aromati
  194   1   5  0.1141000     14.9020224      1.1000494      9.7980642  # H4   HC_aromati
  195   1   6  0.1141000     15.0700188      4.9740820      7.6430573  # H2   HC_aromati
  196   1   6  0.1141000     13.6279449      5.3599238      9.9470310  # H2   HC_aromati
  197   1   2  0.2770800      2.2300785     11.4560528     12.5900412  # C4   CC_aromati
  198   1   3  0.0000000      3.4129734     11.9980059      0.7409767  # N1   N_c_aromat
  199   1   3  0.0000000      2.4720507      9.9960613      0.1620886  # N1   N_c_aromat
  200   1   4 -0.0662000      4.1500649     10.9680290      1.2999893  # C2   CH_aromati
  201   1   4 -0.0662000      3.5850501      9.7640238      0.9509200  # C2   CH_aromati
  202   1   5  0.1141000      1.4580393     11.9729919     12.0420265  # H4   HC_aromati
  203   1   6  0.1141000      3.8919499      8.7519646      1.2189451  # H2   HC_aromati
  204   1   6  0.1141000      5.0269465     11.1610384      1.9199785  # H2   HC_aromati
  205   1   1  0.3536000     20.0529709     21.5010757      8.9260664  # Zn   Zn_c      
  206   1   1  0.3536000     13.7840557      7.7290835      3.4449620  # Zn   Zn_c      
  207   1   2  0.2770800     14.6190710     10.4659901      3.4019315  # C4   CC_aromati
  208   1   3  0.0000000     14.3260088     11.5630236      2.4129980  # N1   N_c_aromat
  209   1   3  0.0000000     14.3400230      9.2800798      2.4940419  # N1   N_c_aromat
  210   1   4 -0.0662000     13.9580832     11.0629368      1.1759144  # C2   CH_aromati
  211   1   4 -0.0662000     13.9699688      9.6870327      1.2220325  # C2   CH_aromati
  212   1   5  0.1141000     14.9229546     10.5080338      4.4340887  # H4   HC_aromati
  213   1   6  0.1141000     13.7370443      8.9680357      0.4349380  # H2   HC_aromati
  214   1   6  0.1141000     13.7139826     11.7239246      0.3440524  # H2   HC_aromati
  215   1   2  0.2770800      1.3370537     16.5670853      8.5389833  # C4   CC_aromati
  216   1   3  0.0000000      1.7629879     16.1649227      7.1170411  # N1   N_c_aromat
  217   1   3  0.0000000      2.1509585     17.8179245      8.6680746  # N1   N_c_aromat
  218   1   4 -0.0662000      2.6689630     17.0760422      6.6039534  # C2   CH_aromati
  219   1   4 -0.0662000      2.9020650     18.0650406      7.5319109  # C2   CH_aromati
  220   1   5  0.1141000      0.6629385     16.0900612      9.2290173  # H4   HC_aromati
  221   1   6  0.1141000      3.5669551     18.9270210      7.4610934  # H2   HC_aromati
  222   1   6  0.1141000      3.1089118     16.9619751      5.6119328  # H2   HC_aromati
  223   1   2  0.2770800     13.7609940      8.4959784      6.3810816  # C4   CC_aromati
  224   1   3  0.0000000     14.8809118      9.2330694      7.1170411  # N1   N_c_aromat
  225   1   3  0.0000000     14.5580463      8.0409508      5.1820116  # N1   N_c_aromat
  226   1   4 -0.0662000     16.0719662      9.1589165      6.4140782  # C2   CH_aromati
  227   1   4 -0.0662000     15.8810854      8.4409847      5.2580390  # C2   CH_aromati
  228   1   5  0.1141000     12.7260494      8.3499784      6.6369500  # H4   HC_aromati
  229   1   6  0.1141000     16.6000824      8.1819820      4.4819431  # H2   HC_aromati
  230   1   6  0.1141000     16.9859238      9.6240559      6.7859173  # H2   HC_aromati
  231   1   2  0.2770800     23.0820522     21.0219212      9.4289265  # C4   CC_aromati
  232   1   3  0.0000000      0.3720046     19.8390274     10.2260551  # N1   N_c_aromat
  233   1   3  0.0000000     21.6220608     20.7799492      9.6460094  # N1   N_c_aromat
  234   1   4 -0.0662000     22.5940285     19.1019363     10.7850685  # C2   CH_aromati
  235   1   4 -0.0662000     21.3900242     19.6669502     10.4350338  # C2   CH_aromati
  236   1   5  0.1141000      0.3459271     21.7939606      8.8799477  # H4   HC_aromati
  237   1   6  0.1141000     20.3779640     19.3600502     10.7040243  # H2   HC_aromati
  238   1   6  0.1141000     22.7870388     18.2250538     11.4040928  # H2   HC_aromati
  239   1   1  0.3536000      3.1990302      1.7509248      8.9260664  # Zn   Zn_c      
  240   1   1  0.3536000      9.4679451     15.5229177      3.4449620  # Zn   Zn_c      
  241   1   2  0.2770800      8.6339941     12.7860107      3.4019315  # C4   CC_aromati
  242   1   3  0.0000000      8.9259920     11.6889772      2.4129980  # N1   N_c_aromat
  243   1   3  0.0000000      8.9130421     13.9719210      2.4940419  # N1   N_c_aromat
  244   1   4 -0.0662000      9.2939177     12.1890640      1.1759144  # C2   CH_aromati
  245   1   4 -0.0662000      9.2820320     13.5649681      1.2220325  # C2   CH_aromati
  246   1   5  0.1141000      8.3290462     12.7439671      4.4340887  # H4   HC_aromati
  247   1   6  0.1141000      9.5149565     14.2839651      0.4349380  # H2   HC_aromati
  248   1   6  0.1141000      9.5380182     11.5280762      0.3440524  # H2   HC_aromati
  249   1   2  0.2770800     21.9149475      6.6849146      8.5389833  # C4   CC_aromati
  250   1   3  0.0000000     21.4900780      7.0870776      7.1170411  # N1   N_c_aromat
  251   1   3  0.0000000     21.1010418      5.4340768      8.6680746  # N1   N_c_aromat
  252   1   4 -0.0662000     20.5830383      6.1759577      6.6039534  # C2   CH_aromati
  253   1   4 -0.0662000     20.3499355      5.1880245      7.5319109  # C2   CH_aromati
  254   1   5  0.1141000     22.5890617      7.1619396      9.2290173  # H4   HC_aromati
  255   1   6  0.1141000     19.6850452      4.3249798      7.4610934  # H2   HC_aromati
  256   1   6  0.1141000     20.1429119      6.2900252      5.6119328  # H2   HC_aromati
  257   1   2  0.2770800      9.4920712     14.7560225      6.3810816  # C4   CC_aromati
  258   1   3  0.0000000      8.3710890     14.0189314      7.1170411  # N1   N_c_aromat
  259   1   3  0.0000000      8.6939545     15.2119379      5.1820116  # N1   N_c_aromat
  260   1   4 -0.0662000      7.1800342     14.0930843      6.4140782  # C2   CH_aromati
  261   1   4 -0.0662000      7.3709154     14.8120804      5.2580390  # C2   CH_aromati
  262   1   5  0.1141000     10.5289669     14.9020224      6.6369500  # H4   HC_aromati
  263   1   6  0.1141000      6.6519184     15.0700188      4.4819431  # H2   HC_aromati
  264   1   6  0.1141000      6.2660761     13.6279449      6.7859173  # H2   HC_aromati
  265   1   2  0.2770800      0.1699475      2.2300789      9.4289265  # C4   CC_aromati
  266   1   3  0.0000000     22.8799953      3.4129734     10.2260551  # N1   N_c_aromat
  267   1   3  0.0000000      1.6299387      2.4720507      9.6460094  # N1   N_c_aromat
  268   1   4 -0.0662000      0.6579711      4.1500649     10.7850685  # C2   CH_aromati
  269   1   4 -0.0662000      1.8619760      3.5850501     10.4350338  # C2   CH_aromati
  270   1   5  0.1141000     22.9060726      1.4580398      8.8799477  # H4   HC_aromati
  271   1   6  0.1141000      2.8740356      3.8919499     10.7040243  # H2   HC_aromati
  272   1   6  0.1141000      0.4649614      5.0269465     11.4040928  # H2   HC_aromati
  273   1   1  0.3536000     13.3769245      3.1990306     12.0869875  # Zn   Zn_c      
  274   1   1  0.3536000      3.8969166      9.4679451      6.6060762  # Zn   Zn_c      
  275   1   2  0.2770800      1.1600097      8.6339941      6.5630455  # C4   CC_aromati
  276   1   3  0.0000000      0.0629764      8.9259920      5.5739188  # N1   N_c_aromat
  277   1   3  0.0000000      2.3459201      8.9130421      5.6549635  # N1   N_c_aromat
  278   1   4 -0.0662000      0.5630633      9.2939177      4.3379931  # C2   CH_aromati
  279   1   4 -0.0662000      1.9389675      9.2820320      4.3829536  # C2   CH_aromati
  280   1   5  0.1141000      1.1179661      8.3290462      7.5950098  # H4   HC_aromati
  281   1   6  0.1141000      2.6579642      9.5149565      3.5970166  # H2   HC_aromati
  282   1   6  0.1141000     23.1540775      9.5380182      3.5049734  # H2   HC_aromati
  283   1   2  0.2770800     18.3109150     21.9149475     11.6999044  # C4   CC_aromati
  284   1   3  0.0000000     18.7130775     21.4900780     10.2789268  # N1   N_c_aromat
  285   1   3  0.0000000     17.0600777     21.1010418     11.8289957  # N1   N_c_aromat
  286   1   4 -0.0662000     17.8019581     20.5830383      9.7650681  # C2   CH_aromati
  287   1   4 -0.0662000     16.8140259     20.3499355     10.6930246  # C2   CH_aromati
  288   1   5  0.1141000     18.7879410     22.5890617     12.3909035  # H4   HC_aromati
  289   1   6  0.1141000     15.9509802     19.6850452     10.6229792  # H2   HC_aromati
  290   1   6  0.1141000     17.9160252     20.1429119      8.7740116  # H2   HC_aromati
  291   1   2  0.2770800      3.1300220      9.4920712      9.5429678  # C4   CC_aromati
  292   1   3  0.0000000      2.3929305      8.3710890     10.2789268  # N1   N_c_aromat
  293   1   3  0.0000000      3.5850496      8.6939545      8.3440905  # N1   N_c_aromat
  294   1   4 -0.0662000      2.4670830      7.1800346      9.5759640  # C2   CH_aromati
  295   1   4 -0.0662000      3.1860800      7.3709154      8.4199247  # C2   CH_aromati
  296   1   5  0.1141000      3.2760210     10.5259514      9.7980642  # H4   HC_aromati